 VARIABLES = "X" "Y" "RO" "U" "V" "C_p" "M"
 ZONE T="  0.000000000000000E+000 " N=        9944  E=       19548
 ZONETYPE=FETRIANGLE DATAPACKING=BLOCK
 VARLOCATION=([3-7]=CELLCENTERED)
  -19.9782054645671       -16.7460447536127       -13.5432470514743       -10.4462771124608       -7.39483127129757       -4.39431260318683       -1.43672854734527        1.47853524247441        4.40194279230921        7.38347804238703        10.4122197804982        13.5308676756442        16.7310607632789        20.0189460056259        20.0156650185539        20.0123451374732     
   20.0090067226427        20.0056742799471        20.0022854763303        19.9988742323503        19.9954939648514        19.9920871178897        19.9886881104951        19.9853470049941        19.9820070605281        19.9783478910574        16.7317203104092        13.4557822172063        10.1645634122701        6.87452312340184        3.53259687976399       0.170578499054329     
  -3.16443525887912       -6.48474521199279       -9.79114624567630       -13.0836966857758       -16.3754018560739       -20.0188035791356       -20.0155069002833       -20.0121812769038       -20.0088400757232       -20.0054989473046       -20.0021446450312       -19.9987763328347       -19.9953939522161       -19.9920253568386       -19.9886729196427       -19.9853365630757     
  -19.9819979716434       0.999807418336735       0.998291217860270       0.996779396799227       0.995277778873562       0.993731579837551       0.992124465518898       0.990451587092080       0.988717418378402       0.986921839697736       0.985062519946773       0.983125456920392       0.981119185198453       0.979027515278903       0.976863119479996       0.974622138572934     
  0.972297162158911       0.969885636138994       0.967386735670976       0.964798139430716       0.962120205254351       0.959347950761588       0.956473564390965       0.953485927400565       0.950375619671646       0.947171358592193       0.943851469410772       0.940383377450177       0.936809457935883       0.933117586042820       0.929286285957562       0.925280627129995     
  0.921131240997746       0.916832860780460       0.912371584269037       0.907738418712906       0.902926896227520       0.897930471934298       0.892736544035205       0.887332328517333       0.881710136623960       0.875862175247747       0.869789557247972       0.863485024693874       0.856940600356949       0.850146240022053       0.843093050922494       0.835772516958399     
  0.828178229815116       0.820301732610078       0.812134731037822       0.803668815353969       0.794895117799848       0.785805964685437       0.776392432080560       0.766530332788894       0.756308589866864       0.745715777286117       0.734741221997856       0.723377912635051       0.711613479125090       0.699435277245032       0.686836049102926       0.673804033439326     
  0.660325314770292       0.646392503722211       0.631992105978402       0.617107429872277       0.601727353088063       0.585831231537893       0.569406571151608       0.552437876524737       0.535514406988124       0.518553984194236       0.501524323752369       0.484425480048225       0.467257033100484       0.449369210984725       0.432077992824805       0.415381792138090     
  0.399278889320885       0.383753311604426       0.368720328109443       0.354161568539832       0.340072955605217       0.326463323235932       0.313317657662070       0.300637012432551       0.288422333808323       0.276655332904307       0.265310957359574       0.254341708337029       0.243734963256721       0.233478325245234       0.223564534740302       0.213985494550295     
  0.204729519733734       0.195785365417492       0.187148432705913       0.178802456868066       0.170737745854473       0.162937278256233       0.155394220430058       0.148102182759783       0.141055068424116       0.134246665892489       0.127670080540256       0.121319745748071       0.115190456763794       0.109276909964196       0.103574575582789       9.807908669148922E-002
  9.278626592225186E-002  8.769264024406331E-002  8.279449138687366E-002  7.808807322477644E-002  7.365165862286521E-002  6.937809268775524E-002  6.526905944636911E-002  6.132282434612572E-002  5.753953244056863E-002  5.389711287043072E-002  5.040725042528017E-002  4.706786057203146E-002  4.386117954179614E-002  4.075793068832650E-002  3.775497744494005E-002  3.482938915433059E-002
  3.198147274394170E-002  2.921627160906758E-002  2.653658374044022E-002  2.394633330066130E-002  2.145160963628196E-002  1.906002530076139E-002  1.689076314581290E-002  1.480130243697532E-002  1.281134743317991E-002  1.093982984757371E-002  9.211640743217352E-003  7.561432034584929E-003  5.952137945394283E-003  4.486959544588415E-003  3.156372344804254E-003  1.997845742426230E-003
  1.071178907854779E-003  4.449697593687916E-004  1.362966735797213E-004  6.419388775485979E-005  3.045108690073848E-004  9.027698270392453E-004  1.811505413925416E-003  2.942389701135035E-003  4.224488032852041E-003  5.603346996164450E-003  7.272916847307676E-003  9.031720407889909E-003  1.089467475921924E-002  1.277641337514050E-002  1.470602453034869E-002  1.673085851616574E-002
  1.890108111877334E-002  2.118337911991574E-002  2.358754905572196E-002  2.605446053805608E-002  2.859154329461589E-002  3.124248544443438E-002  3.404662523084304E-002  3.700150019707576E-002  4.009674742716027E-002  4.332046419745946E-002  4.666187795590195E-002  5.010919444855783E-002  5.365902939543564E-002  5.731124361762712E-002  6.105852714186134E-002  6.525989492614917E-002
  6.960697610242673E-002  7.409722707391349E-002  7.872754930588222E-002  8.342946853051945E-002  8.827196519434580E-002  9.328127042528320E-002  9.845533816392983E-002  0.103796293650659       0.109294464888073       0.114969282984717       0.120861703063598       0.127021414537967       0.133461477260488       0.140185146745489       0.147189016154168       0.154474380934345     
  0.162044406351394       0.169900181619535       0.178045726350479       0.186484587384652       0.195221278635442       0.204440918674832       0.214002030073319       0.223910418636152       0.234175213000599       0.244804750087808       0.255806233170134       0.267190087812439       0.278967142332814       0.291144984997751       0.303734506922429       0.316748106494086     
  0.330193356501939       0.344080256470030       0.358422311071995       0.373219897394522       0.388483758941459       0.404220075430302       0.420414428936580       0.437077241710985       0.454151150809539       0.471627955500311       0.489181406709569       0.506604619131257       0.523895849554862       0.541057474857214       0.558093197996992       0.574684796407354     
  0.590808636871873       0.606444985876238       0.621592732867208       0.636253920972228       0.650392588644961       0.664020088691840       0.677151655021755       0.689805144672147       0.702000801857280       0.713789939487293       0.725214319805977       0.736281923539135       0.747000977594137       0.757373603869548       0.767408147483100       0.777113366472152     
  0.786498006573570       0.795484022823653       0.804140498975701       0.812472222980339       0.820485058179297       0.828183626906640       0.835572244317387       0.842658138478175       0.849503917146687       0.856139491203863       0.862567948238401       0.868793073200864       0.874818734879628       0.880648924905001       0.886286933835928       0.891735872374867     
  0.896999189456813       0.902081237929473       0.906989753752049       0.911729283307042       0.916304329514769       0.920525454732890       0.924630657016069       0.928618052153050       0.932490527151270       0.936233123698332       0.939842832564772       0.943326020284951       0.946674924138368       0.949893162722622       0.952996098280804       0.955959614919271     
  0.958790377574359       0.961544865178975       0.964220023789015       0.966814015351489       0.969325588586327       0.971754167595784       0.974100933237571       0.976366934751393       0.978555495538310       0.980670528993843       0.982663795585523       0.984602565800145       0.986472153108605       0.988277315825168       0.990022028772937       0.991707593342351     
  0.993329560253636       0.994889205564638       0.996389049813274       0.997885051725480      -1.152157362492514E-003 -9.345941119025517E-004 -1.116043767210981E-003  0.996055770988405       0.997496503100349       0.996050149428622       0.997274815740341      -2.581376352921506E-003 -4.507935567300070E-004  0.995710038511376       0.996488778371124      -2.106119680247774E-003
  0.994666920685307      -2.455073261716991E-003  0.994163014455569       0.992503459261656      -7.803559578239211E-004  0.992949372638062       0.993931508278997      -2.520505871701628E-003 -4.046715827975925E-003  0.995015298358660       0.995174795533418       0.998915221210951      -1.477642284872049E-003  3.219624359279148E-004  0.991202177155213       0.989435020962343     
  0.987663969007235       0.992046209823272       0.998221462530478       0.993497639445235       0.991284844282733      -2.143053933593525E-005 -2.201531837108999E-003 -4.152776326322706E-003  0.992934577256463       0.997468330854200        1.00056510286792       0.998208038166804        1.00124874312764      -3.404471386672884E-003  1.368853174279610E-003  0.996593665768112     
  0.997015352517523       0.999569075121681       0.989553589714536       0.990219228981342       0.988370937705331       0.986460272571909       0.991015474770546       0.992793704184096       1.056499222344240E-003 -9.128337199690157E-004  3.680119731740302E-003   1.00235264038081       0.990539255935807      -5.494223371870933E-003  2.655938505071793E-003  0.991055369009225     
  0.987666286346022       0.989058592290955       2.286470646396999E-003 -4.231406542284570E-003  0.991796977553033       0.999985188194219       0.999425419702666       4.149743275753021E-003  0.989227099422576      -2.622848989206207E-003 -3.866940645848406E-003   1.00326476478290        1.00132513106283       0.994942775997725       0.999074063989129        1.00114707335031     
  0.993838832109768       7.535464075408592E-003 -2.660583418223964E-003  0.999697312240211       0.998836466751462       5.812198021114352E-003  0.985697638862008       0.983708434838153       0.991944233223842       0.998073578173331       0.986953625732745      -5.976219120235393E-003  0.988360698550131       9.221585617381879E-003 -5.540748991714892E-004  6.544706319311301E-004
 -5.445856961933554E-003  0.984369003292499        1.00353613701525       0.987243603969103       0.985041346080366       0.997901662434131       0.995870423969989      -1.523824626063808E-003   1.00413021265687        1.00600766534309        1.00187302667763       0.984804309086623       0.982552475109754        1.00095901068505       0.994257390891102       0.986167003251835     
 -4.834653034031178E-003  5.809308446547861E-003  1.574229859886894E-003  7.591004751281411E-003 -7.198814594953099E-003 -1.874263928839366E-003 -1.174661992856949E-004  2.388287524646463E-004  2.131677213086353E-003  0.994825709677028        1.00270190723363       0.995677138099659       0.988370073206959       0.992650908342353       0.981994236599047       0.979838869104234     
  0.982822871749054       3.864649760414811E-003 -5.681464955019903E-003 -7.568731382833145E-003  0.977691360420102       0.989769184955332       5.261734844318583E-003  0.986094139819226       0.990973548801158       0.993789784719877        1.00046127315779       0.999683865607349       3.120716340292483E-003   1.00546933457296        1.00444343103993       0.996670257006724     
  0.998622565347873       6.362843902357833E-003   1.00011363399803        1.00241495919444       1.101368743020266E-002   1.00300620813228        1.00696525615734        1.00469984596258        1.00730003612973       0.990179373829691       0.993276030781437       0.989090513684277       1.602064771353852E-003  7.017185418822841E-003  0.990124290694410       0.986018068942375     
  0.983364997429932       9.011291351090543E-003 -6.208806604501116E-003 -4.042246473941498E-003 -2.568213834347933E-003 -3.866524289004029E-003  0.991460446384218       0.992576794738536       0.980704697922997       0.978511494799539       0.976133262695701       1.081838994008531E-002  0.992099364962975       0.996115307732735       0.995092735021718       0.997155773984217     
  4.863674231257444E-003  1.275928139017888E-002  0.987697981978868       0.987389973163632        1.00333321446708       0.989404682866867       8.888460349713911E-003  0.987445527043103      -4.265579812833898E-003 -8.130275760109999E-003  0.981498184913396       0.980153663370082       1.301644396505458E-002  0.981947272719007       0.977655680864403      -6.231978170075789E-003
  0.985447815493847      -7.602755244544385E-003  1.105290553511697E-002  0.994637560191125      -3.146710666026059E-003  3.687812433975379E-003  0.975367346922269       1.079150101570697E-002 -6.902253738080057E-004  7.962820460156519E-004  1.474592758586754E-002 -9.509350035834168E-004  6.770081823845767E-003  0.978771536906772      -6.369788631246152E-003 -9.088676754452341E-003
  8.783779043423817E-003   1.00567419034336        1.00856741992779       0.979598323934837       0.977147081911786       0.974035625428254       0.984681096120508       0.982538932923776       0.993822830702941      -1.734134988674560E-003  1.270199700896420E-002 -9.886813527527903E-003  0.976737114518602       0.974364469401615       1.514023762183818E-002  4.458877714189919E-003
  8.783562384115252E-003  1.082649295325832E-002  0.973004866750216       0.970611663425484      -8.369069520933796E-003 -1.049466845559871E-002 -4.520637199478052E-005  1.325176148743221E-002  0.983786306835919       0.980950668229406       0.982848425822601       0.980212678911458       0.981043082397939       0.980596687113653        1.00898368855351        1.00570483138473     
 -6.037397532345111E-003  1.022483764345973E-003   1.00222638027979        1.00146000644573       0.984855974656545        1.00435660690191        1.00400620516485       0.971861541701422       1.735483572865035E-002  0.981889301261486       0.983283585084052       1.119642031140513E-002  0.998742057344705       0.989629997403681       0.969278185492751      -3.682542705985758E-003
 -5.176457196465460E-003  0.985709301164445       0.996089236526747       1.550124279130945E-002  0.979533411890643       2.522371409019635E-003  1.685928845027776E-002  1.470265303812834E-002  0.973667729016465        1.00796281017305       0.978762553865382        1.00146116443811        1.00039412376439       0.978379017360284       0.997682473973785       1.356191899262479E-002
 -4.490700707369480E-003 -8.421653371237072E-003 -2.846690642392148E-003 -1.011634362161356E-002 -9.743975304487880E-003  3.463896948150864E-003  0.975793171219844       0.975926869420548       0.973340441891816       1.161064016867134E-002   1.00961492244807       0.970974393497361       0.968508682851196       6.577473915850794E-003  0.971865662760167       0.966022192296842     
  0.963784830368625       8.878052529202202E-003 -7.929806220000869E-003 -1.085556222045325E-002 -1.896990980439582E-003  1.911906086554445E-002  1.693825675201381E-002  0.996562418888574        1.00318990024015      -1.193564761911384E-002  0.983081170602931       0.979907253015385      -9.494246551515835E-004 -7.339407785331093E-003  1.457475897635235E-002   1.00210580014701     
 -1.067849019013928E-002 -1.299929806805390E-002  0.977718151247929       0.977233006877881       8.825855570095584E-003  9.422170404150439E-003  0.987664242690422        1.01108807861770       0.990569745392817       1.583519823367440E-002  1.894617867899482E-003  0.969658268696425       0.967166433565507       0.964532292483615       0.961474143956741       1.782217755918755E-002
  2.596868190884157E-004  0.970626602860296       1.394057797400308E-002  1.968703036970836E-002 -1.228681308144758E-002  0.993474893059918       0.994875655155114       0.997620416181097       6.504734970027857E-003 -6.516897624363838E-003   1.00630443866684        1.00627098019758       0.967776924848482      -5.831989211830933E-003 -4.877988321825297E-003  4.075093435853027E-003
  0.971042239331422       1.278006527811572E-002  0.999321390008267        1.00101240362976       2.148349882905583E-002  1.933250586167493E-002  1.701098458969004E-002 -4.049547204512781E-003  2.212818440767341E-002  0.975078880000630       0.972250363453302      -1.472107177911485E-002  0.988034664575174      -1.063596333298390E-002   1.01071885296715       1.590201171606273E-002
  9.298772260470125E-003  2.026814105686512E-002   1.00491032658534       0.968466722993311       0.965888087436680       0.996248768099327       0.962923835448476       2.386355163063239E-002  6.164607045838735E-003  2.180186099535657E-002   1.00889869034988       6.372287290164599E-003  3.706853386387955E-003  3.375063254188702E-003  1.823413697063140E-002  3.289410829958421E-003
 -8.936890705384760E-003  0.990538728200247       0.985541568905162       0.983518900574000       0.985938646081096       0.987977886034918       0.995260566367947       1.445635446865923E-002 -1.944723027682158E-003  0.966373357237563       2.088468668019454E-002  0.969741292756391       0.991126645288078       0.990142844793876       0.987791856135872       0.985585944804700     
  0.988475658117228       0.989413058077162      -1.230789354064991E-002 -3.079750271033178E-003   1.00044724236173       0.984649806870470       0.968475840047016       0.998197538083715       0.996980522160486       2.620233487011458E-002   1.00835370319822        1.00658062902967        1.01012187273888        1.01181973125589      -1.308672073563023E-002 -1.567344797953190E-002
 -8.525251205787414E-003  1.962080505515367E-002  1.711912368791936E-002  1.437823550331266E-002 -1.013914828266231E-002  0.990856002502267        1.00924899935577       6.197487517556268E-003  0.980650044242742      -7.295335699859016E-003  0.992544096394448       0.993247521204699       0.994397780489551       1.242633657868751E-003  0.972591258027330       1.236582789890876E-002
  1.193640157969125E-002  0.981107182989967       0.970975535328317       0.959615236501468       0.963229050775644       0.960338451987484        1.00437789159296       0.964877915047250       0.968083353914479       0.973953337535735       0.972278787208224       0.975932536661174       0.976845678182392       0.975235744330442       0.973607756758172       0.957348468428693     
  0.954061274136162      -5.433437860902066E-003 -1.288101298622735E-002   1.01232835442125        1.01353562702731       0.982695708153563       0.980133872827843       6.587678668417514E-003  6.732634458395956E-004  6.005162687059810E-004  2.683641205332003E-004 -6.112387843519250E-003   1.01162411361757        1.00732534733246      -1.052238978184610E-002  2.875471309218783E-002
  2.591790321822954E-002 -1.505631740332054E-002  9.062152590105992E-003 -1.555422120445761E-002 -1.847298955014297E-002  0.992290822039642       0.990391901315130      -1.261875576289355E-002 -1.537013081875559E-002  2.702344817585831E-002   1.01121608736479       1.168836992106835E-002  0.986782022269639       0.987370577298759        1.00327209110505        1.00927835600688     
   1.01214620050838       0.987993684933516       0.962041138281276       0.959087641140248       0.955850031270315       0.952310382467394      -3.115792484836304E-003  0.978060451825967       0.985219130343525       0.984634735836033       0.982926143239332        1.00944913099053       0.977812422085366      -1.239102330714450E-002  0.984394046526027       0.967406076293930     
  0.969319409977140       0.970667880306878       0.971838412708753        1.01133368667650        1.01191319418170      -8.927293769101978E-003 -1.800730967930947E-002  0.963639408912751       0.974065335082413       0.971135454278248       6.112961792304624E-003   1.00742063244710      -4.170724897155917E-003 -7.868220477702716E-003   1.01214042321843        1.00443119692769     
   1.00229872642788        1.01310917081660       2.245000283462996E-002  2.971325444164855E-002  2.698183256483346E-002 -9.236425156308648E-003  2.278075535855491E-002  2.458485446162607E-002  2.369867039064762E-002  0.978327077681710       0.977025644062500       3.129467192072080E-003  2.993361221194367E-003  0.999309302217021       9.761372133888734E-003   1.01420910471845     
  0.961098713416817       0.987864419894811       0.993676548238836       0.995527447711637       0.958041639494763      -1.220930162260725E-002 -1.515207982782015E-002  0.964917447375194       0.980531549527833      -1.533216417557807E-002  0.981484949791273       0.984704763711529       0.991087256183551        1.00675017454104       0.973153909389617       0.969318983897134     
  0.966244061295366       0.963949241827048       0.967933770295925        1.01357094116223      -7.340576715308141E-003 -1.091852854491472E-002  1.146929067245515E-002  2.404514385309187E-002  2.001141758354628E-002  1.724025970326375E-002  3.150209485490930E-002  2.906263201567762E-002  2.761867392209210E-002   1.00525942657002       1.428738483654414E-002 -1.586788667836674E-003
 -1.561734274498224E-003   1.01440527806575        1.01671583882362      -1.547500859891413E-002  0.954934074626158       0.951818188034755       3.265165765946650E-002  3.036013533272121E-002  2.809628690642896E-002 -1.245088988085495E-002   1.01409409429736        1.01778524552282       0.975594962821729       0.970136432641933      -5.250026566038637E-003  8.792512254981398E-003
  6.946841253362880E-003 -1.845667766740212E-002   1.01431867539139        1.01541253970477       2.502907491691784E-002  2.160766994266127E-002  0.966224386668325       0.967743271427172       0.969238297362447       0.969424712632786       0.998018212291215        1.00577306198852        1.00850375921934        1.00429865137791      -1.075703567577690E-002 -1.322602215238983E-002
 -1.539761209641728E-002  0.948634195939840      -1.065470309112113E-002 -1.407570297702447E-002  0.975496396033075       0.956421452634301        1.00931027811483        1.01214850753877       0.981440589812781      -1.401752407658137E-002  0.991540038862105      -1.774264904221014E-002 -2.104561328706832E-002  3.557903980459166E-002  3.338872304347667E-002  3.124228361047085E-002
  2.926053210721550E-002  0.972543540884931       0.975349733546177        1.00121767618735       0.999966727103093       2.333067645826768E-002   1.00742004653464       2.440196154553347E-005  5.900468916744690E-003  3.063479412744815E-003  0.966840663446519       0.969227868135224       0.978511245027732       2.479517739800072E-002  1.862875305791867E-002  1.596269616740707E-002
   1.00004424579103        1.00258151879796       0.999129616890312        1.00618284611177        1.01489782751129        1.01510214314221       1.301538182937463E-002   1.00383632890580       3.439398256723095E-002  3.151307046922718E-002  0.953369279922481       0.950111926448304        1.00566779317974       0.946542779747673       3.852174137509976E-002  3.627405506386239E-002
  3.414642585710362E-002   1.00924431750301       0.961168082080113       0.957682432107738       1.912533454900809E-002  0.962797654897196       0.985261428517535       0.977294675132191      -1.675027853541786E-002  0.965736817470067       2.035701740873293E-002  1.732934448246234E-002  0.964505031543690       0.966497423130238      -1.326703076251179E-004 -7.224561300575309E-003
 -1.422196564983777E-002  1.000685348893887E-002  0.964027813970614       0.961818249409518       0.968162932796262      -1.766343741871206E-002  8.487985790401860E-003  0.954886175205044       1.415845297049037E-002  2.242845286478491E-002  2.585991353126456E-002 -1.241924305517338E-002 -1.536842749325212E-002 -1.382547349425435E-002 -1.712840887324114E-002 -1.775306876366450E-002
  0.954901515312195       0.959075839819901      -2.175131189393670E-002  4.156753852850419E-002  3.914567447927565E-002  3.678873388163592E-002  3.499182149737776E-002  6.952150086073914E-003   1.01264089303948        1.01722175822137        1.01917045315447        1.00999738568165        1.01690108359988       0.971924783358359       0.975329475522033       0.960873014391671     
 -2.441958431097412E-003  3.752673371468202E-002  3.476322954003205E-002  3.174032692735789E-002  0.952032962118296       0.948261589201400       2.372875134294028E-002  0.996941170671636       4.400031996865545E-003  4.077119705771056E-003 -1.799005546133497E-002 -1.576305632914954E-002 -1.762348831917762E-002  0.962856292390209       0.958959969690603       0.978387036920452     
  5.785694545275689E-003  3.661926252104621E-003  1.331447001665705E-002  1.116217549469929E-002  0.943711601500624       0.948732723466613      -1.853700012624349E-002 -1.848429520318794E-002 -1.774923152400432E-002 -2.153394387435095E-002  0.965171717018888       4.477103662064193E-002  4.230139861978709E-002  3.935047242084289E-002  1.976304506950350E-002  0.954422819688464     
  0.957849258488507       0.960023765786814       0.950878238166107       0.956583523638584       0.953019124298296       0.949400121464711       7.805059686715593E-003 -1.226031303144352E-002  0.997967863056338       0.974639620339654       0.973428321364335      -2.032182261313040E-002 -2.030964581193036E-002  0.970923129623114       1.632797109014967E-002  1.475097901500882E-003
  0.981634893295228       0.984682962598153       1.681474470217703E-002  2.060090593773017E-002  1.740468017377472E-002  1.403848777876802E-002  4.076420756205939E-002  3.812255002033383E-002  0.978960624469535       0.973742768461367       1.015570847895975E-002  6.835569135042218E-003  0.945278366242494       0.941774757495653       1.004799327718141E-003  1.075684987502641E-002
   1.01448672845435       0.961072023397230       0.956947251714182      -1.925659221671121E-002 -2.148463932639456E-002  0.938171747148488       0.934517403789312       2.336838467797415E-002  0.947335933540278       3.526805442384620E-002  3.209053063881993E-002  2.717202002593884E-002  4.809750440081130E-002  4.569097744151980E-002  4.322781243035569E-002  4.114874836140019E-002
 -6.042513077233010E-004  0.987896714335511       0.991127900632457       0.955256483235867       3.813616857524699E-003 -1.921767704687243E-003   1.01444596571257       2.405257815875268E-002  4.404761294403145E-002  4.144696122505800E-002  3.893158419063376E-002  2.051283567691254E-002  6.966953359766885E-003  1.364625129635344E-002  0.943818750142095       0.940224569975051     
  0.942741569009111       0.987857100117122       0.994328446868956       0.994393915606147       0.945788196209169      -2.171049183152428E-003  0.958868511852310       0.951506542189758       0.947729238300303       0.988938862363412       0.992625613691744       0.938650985677061        1.01100246545034       0.991132396595360       0.934854571237779       0.956968402470754     
  0.954959038613709       0.952813620390795       0.971979186196563       0.945877496386427       0.957706585514379       1.028211867840638E-002  6.666192016392705E-003   1.01676191945164        1.01535022455330        1.01678569208303        1.01901528737763       8.922594043459259E-004 -1.343698738835332E-003  1.040199200532874E-002  4.740926739514707E-002  4.465407900533836E-002
  4.211004295739933E-002  4.063125994795681E-002  0.950619330595027       0.946506579259584       0.930851811243856       2.086621236184235E-002  1.752976069384871E-002  2.653764954765732E-002  0.989882559792239       0.978625162080897       0.982499929750245       0.986233083434741       0.975340661429079       0.975331241590706       5.152881330308735E-002  4.908401019628145E-002
  4.661004165395058E-002  4.422767931348875E-002  4.113517508277154E-002  0.953774350384338       0.956181943474678       1.402158479977456E-002  1.736993062010806E-002  0.961746651319934       0.993554144989773       0.964272836126100       0.960246288808155       0.966828844761174       0.940265028063265       0.998417569108525        1.00141415400340       0.994529220853212     
  0.942427347470415       0.938730812913047        1.00222787149696       0.948988250357789       1.401241378861299E-002   1.01792467328674       2.815385546239404E-002  3.237622652656009E-003  0.936466250323029       0.952930990589719        1.00065065863105        1.00340581441527        1.00653208484876       0.967745653565941       0.945110592588347       0.949791112783200     
  0.945226416354667       6.396403411934371E-003  5.092531159963857E-002  4.802331028482996E-002  4.483448054083466E-002 -9.357586638146518E-003 -1.244074895985316E-002 -1.584422409030158E-002 -5.657711843866138E-003 -8.018477435487214E-003 -3.727617926961326E-003  0.987717635506762       0.979774988552355       0.999756923691251       0.944533916855871       0.936859341112152     
  0.932843809058926       2.458546411853200E-002  2.850194589874604E-002  2.447583542400526E-002  0.997223878423533       0.998566399776449       0.991096141708633        1.01830583367955        1.02036900878669       0.990699651873973       0.996215528786908       0.997340180043255       0.994474982573444       0.984495267141491       0.963393716008828       1.043727611532628E-002
  6.592809152258554E-003  0.934678515569873       0.951020719277466       0.948686479841293       3.213882605770207E-002  3.104121901578550E-002  2.905590395278456E-002  0.942272966643292       0.947618073429133       0.944204263862403       5.508847729110842E-002  5.256698057761479E-002  4.995905771890106E-002  0.983574756351000       0.987127517395681       0.987627635322044     