 VARIABLES = "X" "Y" "RO" "U" "V" "P" "M"
 ZONE T="  0.000000000000000E+000 " N=        9944  E=       19548
 ZONETYPE=FETRIANGLE DATAPACKING=BLOCK
 VARLOCATION=([3-7]=CELLCENTERED)
  -19.9782054645671       -16.7460447536127       -13.5432470514743       -10.4462771124608       -7.39483127129757       -4.39431260318683       -1.43672854734527        1.47853524247441        4.40194279230921        7.38347804238703        10.4122197804982        13.5308676756442        16.7310607632789        20.0189460056259        20.0156650185539        20.0123451374732     
   20.0090067226427        20.0056742799471        20.0022854763303        19.9988742323503        19.9954939648514        19.9920871178897        19.9886881104951        19.9853470049941        19.9820070605281        19.9783478910574        16.7317203104092        13.4557822172063        10.1645634122701        6.87452312340184        3.53259687976399       0.170578499054329     
  -3.16443525887912       -6.48474521199279       -9.79114624567630       -13.0836966857758       -16.3754018560739       -20.0188035791356       -20.0155069002833       -20.0121812769038       -20.0088400757232       -20.0054989473046       -20.0021446450312       -19.9987763328347       -19.9953939522161       -19.9920253568386       -19.9886729196427       -19.9853365630757     
  -19.9819979716434       0.999577086907778       0.998058983338830       0.996545255122402       0.995041733978916       0.993493566509892       0.991884397542657       0.990209371847025       0.988472968985945       0.986675069390828       0.984813339456684       0.982873759555689       0.980864876409525       0.978770480877435       0.976603263653261       0.974359362813518     
  0.972031361135618       0.969616704587789       0.967114571229156       0.964522641305057       0.961841278279017       0.959065499181059       0.956187489057703       0.953196122600310       0.950081976409297       0.946873811931079       0.943549936894242       0.940077748254175       0.936499682116152       0.932803609652927       0.928968041848318       0.924958022568440     
  0.920804230069805       0.916501404233323       0.912035641114514       0.907397952022571       0.902581875900257       0.897580874629841       0.892382347805277       0.886973513199010       0.881346688436759       0.875494086475153       0.869416832606003       0.863107673906740       0.856558637227780       0.849759680681014       0.842701914363444       0.835376824887774     
  0.827778007391765       0.819897006510662       0.811725528849755       0.803255164661541       0.794477044942479       0.785383494150879       0.775965584463486       0.766099072581198       0.755872921077021       0.745275693865350       0.734296706014151       0.722928933465899       0.711159989120433       0.698977209703401       0.686373318625898       0.673336533042019     
  0.659852914594776       0.645915053725753       0.631509435055689       0.616619347258327       0.601233654360030       0.585331700760484       0.568900991370003       0.551926038357950       0.534996342590667       0.518029728531553       0.500993941474702       0.483889085624346       0.466714798654551       0.448821169147205       0.431524678736650       0.414823778369110     
  0.398716777058192       0.383187718566457       0.368151869496209       0.353590869865007       0.339500649693342       0.325890044699072       0.312744034608837       0.300063662222114       0.287849856924955       0.276084310030993       0.264741949480818       0.253775263523230       0.243171612352866       0.232918581288304       0.223008890507150       0.213434421849296     
  0.204183470799957       0.195244773170653       0.186613706699985       0.178273991509771       0.170215917352521       0.162422452420587       0.154886745757728       0.147602390448935       0.140563272510934       0.133763163890440       0.127195154996849       0.120853663317355       0.114733468261197       0.108829251079234       0.103136466205059       9.765073103048298E-002
  9.236785253533634E-002  8.728434094826881E-002  8.239646184627449E-002  7.770045318433692E-002  7.327437592359345E-002  6.901128903970093E-002  6.491285391054992E-002  6.097732065679458E-002  5.720481299542589E-002  5.357330523338585E-002  5.009443028665861E-002  4.676608967150543E-002  4.357056113224825E-002  4.047866373441477E-002  3.748727531082341E-002  3.457356585247192E-002
  3.173786379337490E-002  2.898521663444910E-002  2.631843816528129E-002  2.374146607846687E-002  2.126039424816737E-002  1.888283131081030E-002  1.672722488398361E-002  1.465192931969519E-002  1.267658700693814E-002  1.082005008556179E-002  9.107041662479755E-003  7.472896878217811E-003  5.881263853423633E-003  4.434614398984581E-003  3.123977575767821E-003  1.986985626722655E-003
  1.083223532048642E-003  4.801020272442695E-004  1.922923388593817E-004  1.409710307406498E-004  4.078097694431212E-004  1.032094186918539E-003  1.965621302331281E-003  3.119277011731356E-003  4.422130548025116E-003  5.819879501619377E-003  7.509288487209676E-003  9.286528926045054E-003  1.116702896892219E-002  1.306492217709315E-002  1.500981159071481E-002  1.704954255247606E-002
  1.923466629525853E-002  2.153163962783717E-002  2.395033440802427E-002  2.643129651439353E-002  2.898204892002663E-002  3.164653466771350E-002  3.446427626137655E-002  3.743277046632144E-002  4.054158503851356E-002  4.377875247385755E-002  4.713345007818652E-002  5.059383748370808E-002  5.415652132287965E-002  5.782136521954186E-002  6.158103770849345E-002  6.579566648620917E-002
  7.015582526797924E-002  7.465895255695952E-002  7.930193184775983E-002  8.401610606596223E-002  8.887063872990225E-002  9.389181165291066E-002  9.907755562182816E-002  0.104429982913739       0.109939384653986       0.115625214426500       0.121528481003432       0.127698926942512       0.134149588625854       0.140883679732345       0.147897742310794       0.155193029403025     
  0.162772666805619       0.170637701789814       0.178792115635509       0.187239415818736       0.195984077245724       0.205211319773364       0.214779476757912       0.224694304342328       0.234964881722126       0.245599493255228       0.256605286614628       0.267992630202692       0.279772291549060       0.291951793781503       0.304541959721013       0.317555114764801     
  0.330998754097658       0.344882794969885       0.359220653371247       0.374012616467122       0.389269330037213       0.404996872434685       0.421180733730810       0.437831227328603       0.454890934813127       0.472351571956796       0.489887147576434       0.507291017973805       0.524561501937262       0.541701034316379       0.558713375153706       0.575280841683707     
  0.591379978767159       0.606991227948789       0.622113622861554       0.636749340128823       0.650862614526068       0.664464907227448       0.677571542662659       0.690200452230931       0.702371938630103       0.714137299173166       0.725538286385782       0.736582930834524       0.747279502177417       0.757630171709580       0.767643314977628       0.777327713818159     
  0.786692132469861       0.795658727394500       0.804296461538182       0.812610136080898       0.820605621398975       0.828287546033672       0.835660228800256       0.842730892229148       0.849562017682685       0.856183459269168       0.862598303960946       0.868810333068988       0.874823410081235       0.880641519629086       0.886267945308835       0.891705789821817     
  0.896958492062753       0.902030391786205       0.906929204122052       0.911659460147236       0.916225646755357       0.920438679527251       0.924536087506084       0.928515983465256       0.932381241865611       0.936116924442613       0.939720019048448       0.943196872123108       0.946539726748165       0.949752186889685       0.952849579820983       0.955807825739512     
  0.958633571187111       0.961383189646469       0.964053628061970       0.966643047469814       0.969150195070489       0.971574492731894       0.973917116477218       0.976179111434479       0.978363793333067       0.980475067249163       0.982464778858561       0.984400078412360       0.986266305278007       0.988068209227261       0.989809758093238       0.991492251269092     
  0.993111248201842       0.994668023464259       0.996165093917384       0.997658315071680      -1.085883424701103E-003 -8.882542383517082E-004 -1.028456920038408E-003  0.995820015109344       0.997261992959016       0.995813199696111       0.997051163533494      -2.505773112077853E-003 -4.253483133414774E-004  0.995488774841561       0.996267747983141      -2.068442909465186E-003
  0.994429448933696      -2.397857180685388E-003  0.993944081810275       0.992287444303045      -6.674100771178950E-004  0.992709667475199       0.993691994243136      -2.424434437528060E-003 -3.979385349773319E-003  0.994795958230774       0.994957007739264       0.998689502149948      -1.460746669461615E-003  3.255366588788239E-004  0.990960357239565       0.989191100628961     
  0.987417910801013       0.991804652687252       0.997998298345132       0.993280768009647       0.991071853452735       1.185955762522493E-004 -2.075424851370662E-003 -4.069995815277116E-003  0.992693136646618       0.997247892258702        1.00033821919105       0.997972816622071        1.00101935115094      -3.375071159971944E-003  1.350641661613916E-003  0.996376748274086     
  0.996777710202431       0.999336662311954       0.989342659036714       0.989975763810035       0.988125535655392       0.986212837476609       0.990801889206706       0.992580104591849       1.219155052314916E-003 -7.628072829582139E-004  3.884142673282071E-003   1.00212572204809       0.990329450781640      -5.419633061818013E-003  2.616705964131670E-003  0.990812153119248     
  0.987458883362130       0.988849788883673       2.470278560228076E-003 -4.127940436282815E-003  0.991553842640885       0.999750991886611       0.999202929713873       4.090364072605820E-003  0.988982277643821      -2.614198220698442E-003 -3.817528385462082E-003   1.00303606996497        1.00110076961694       0.994703225440788       0.998838105846275        1.00091253247788     
  0.993597453997098       7.439530958141254E-003 -2.518287464560579E-003  0.999472747297268       0.998617014311238       5.733476308520413E-003  0.985493706871560       0.983507999167150       0.991733936065018       0.997857539244489       0.986748235782944      -5.887534675377872E-003  0.988154100467413       9.112005351941895E-003 -5.585108830125256E-004  6.288102542184456E-004
 -5.404508594293478E-003  0.984119045304376        1.00331116239671       0.986996721458071       0.984791800770416       0.997663361118796       0.995630673127803      -1.536052082082110E-003   1.00390333503459        1.00578214420930        1.00164104725901       0.984602378914992       0.982354139253186        1.00073752051178       0.994043737036408       0.985963576000138     
 -4.813732631071343E-003  5.721540527390889E-003  1.765164040715029E-003  7.489145113570108E-003 -7.166155378854699E-003 -1.717167988971824E-003 -1.504758461324824E-004  4.090335759103011E-004  2.085117210191672E-003  0.994584361869480        1.00247899284274       0.995463799625860       0.988123969267128       0.992407796220369       0.981740854043127       0.979582902412301     
  0.982570216006367       3.797325247748663E-003 -5.620520951193302E-003 -7.494307156210741E-003  0.977432673810558       0.989561875419005       5.485399765527348E-003  0.985846401070810       0.990765980464505       0.993546578200421        1.00024296511666       0.999468838931860       3.331933233027765E-003   1.00524123071505        1.00421279253264       0.996430220637940     
  0.998383326537089       6.262987857379878E-003  0.999877078608946        1.00217999331847       1.088902623432182E-002   1.00278583921419        1.00673551174797        1.00447698732739        1.00707737795973       0.989934233241175       0.993065637302919       0.988884838114082       1.548077344176425E-003  7.260240770297591E-003  0.989879888569144       0.985769146145529     
  0.983112575716583       8.897057058173166E-003 -6.099190304470607E-003 -3.897587416151495E-003 -2.588033694565271E-003 -3.866106631864286E-003  0.991215286989391       0.992331582803345       0.980449796273836       0.978254151889483       0.975873007530018       1.109669299545763E-002  0.991891872620920       0.995873922948466       0.994849403950974       0.996943098027032     
  5.094778936169440E-003  1.305240189315958E-002  0.987493186877952       0.987186694691732        1.00310001085730       0.989157848065769       9.149906020118134E-003  0.987197315477470      -4.138046400640963E-003 -8.034682654555089E-003  0.981243942932753       0.979959512417545       1.287629122338701E-002  0.981749555133676       0.977466081759323      -6.102627346165981E-003
  0.985246473290238      -7.549659414201804E-003  1.092191793803370E-002  0.994427460439264      -2.982313635452198E-003  3.612091639438906E-003  0.975181559510709       1.107572024793913E-002 -5.125919587393882E-004  9.946454771824983E-004  1.505315789108923E-002 -9.910554958159953E-004  7.020501176377506E-003  0.978580738438604      -6.357817007230671E-003 -9.066006702031677E-003
  9.052385665885565E-003   1.00544188929412        1.00833611996915       0.979342346549004       0.976888321011210       0.973772035158731       0.984429816244645       0.982285375676225       0.993577469807155      -1.548926942306729E-003  1.299864850869401E-002 -9.821419041541799E-003  0.976549355058944       0.974180709172888       1.498557547406424E-002  4.697639076677109E-003
  8.662458798535184E-003  1.111534624949078E-002  0.972823197488789       0.970434179783645      -8.254298351406912E-003 -1.039323446635784E-002  1.605747356428645E-004  1.310544822260258E-002  0.983586669091507       0.980756410294863       0.982651866053126       0.980020815788732       0.980788312479823       0.980341036864513        1.00875883339683        1.00548441209157     
 -5.888508459442074E-003  9.609720655675799E-004   1.00200926728960        1.00124611784211       0.984657699912831        1.00412269033546        1.00377086565516       0.971681988446169       1.718653730126927E-002  0.981695667174100       0.983088657044057       1.105830010265652E-002  0.998530266229970       0.989424895659435       0.969102711857510      -3.709773842796327E-003
 -5.184261964097873E-003  0.985458805760096       0.995879778421140       1.534143422394221E-002  0.979343164377399       2.741121019647348E-003  1.718125092947787E-002  1.501333607525591E-002  0.973403931086616        1.00773543819298       0.978505453210103        1.00122412400293        1.00015463598950       0.978189343620995       0.997440988620382       1.340952600722893E-002
 -4.318729232125504E-003 -8.289003942063262E-003 -2.654364584467427E-003 -1.003351887872436E-002 -9.698847993503706E-003  3.378695036618001E-003  0.975532251561401       0.975741040865824       0.973158843406853       1.146513163655636E-002   1.00938603950239       0.970706889379323       0.968238210790280       6.835560572006010E-003  0.971599121223605       0.965748635140425     
  0.963508780300623       8.749416814035380E-003 -7.926994100513432E-003 -1.084349024342809E-002 -1.944114406543814E-003  1.945594648684025E-002  1.726391582644350E-002  0.996318969347365        1.00295226051427      -1.186166614038456E-002  0.982827897955275       0.979649950456976      -7.364089871082828E-004 -7.180210258155273E-003  1.488935801318476E-002   1.00186595150460     
 -1.055869751650391E-002 -1.289197933533072E-002  0.977530065481963       0.977047167411921       9.102205269268226E-003  9.708287882711969E-003  0.987462897546700        1.01085815789483       0.990365778712817       1.567135981128520E-002  2.120971156165771E-003  0.969389372590214       0.966894747333173       0.964257644939207       0.961195474951319       1.764944881930469E-002
  1.889448423694071E-004  0.970449326024598       1.378358442115636E-002  1.950517868508484E-002 -1.222826692218526E-002  0.993267900910617       0.994669255901686       0.997411748578543       6.770410745985912E-003 -6.532725016994561E-003   1.00607069606070        1.00603509643315       0.967604358531773      -5.652938126622540E-003 -4.912674247555255E-003  4.321594261474280E-003
  0.970774746794916       1.262563431693799E-002  0.999079779513161        1.00077056606414       2.183490143850230E-002  1.967302145926457E-002  1.734041292819445E-002 -3.850654529015503E-003  2.193280185451905E-002  0.974895262529347       0.972071125283780      -1.464748821058808E-002  0.987835189702451      -1.050003413617614E-002   1.01049219100956       1.573487593833208E-002
  9.162949885330181E-003  2.008183743815069E-002   1.00467220584743       0.968196615995589       0.965615536824492       0.996043236017870       0.962647539929974       2.422799544728484E-002  6.055884027283348E-003  2.215652125944685E-002   1.00866510840728       6.645615147125104E-003  3.961417223099391E-003  3.637954936810434E-003  1.805723809746792E-002  3.194869265883745E-003
 -8.769357805920247E-003  0.990337061768327       0.985344298925829       0.983324717988479       0.985742084629940       0.987780189552770       0.995015071465390       1.477475341162414E-002 -1.724201078957695E-003  0.966202725440580       2.069403479471108E-002  0.969472451459576       0.990879347088903       0.989895824180049       0.987543121856975       0.985334425373555     
  0.988226437772819       0.989163394275271      -1.227397896651434E-002 -3.133971293267771E-003   1.00023645643888       0.984456638319661       0.968301569910820       0.997954010524395       0.996734938485657       2.657858720846011E-002   1.00813332437955        1.00636226004044        1.00989936164203        1.01159529151940      -1.296183720231768E-002 -1.555957456063989E-002
 -8.380302191029367E-003  1.996479153050641E-002  1.745201948762698E-002  1.470008392725885E-002 -9.989426238045013E-003  0.990656650643104        1.00901359056796       6.079771878702641E-003  0.980459177862032      -7.109632689451546E-003  0.992339498005429       0.993044074705166       0.994196490175826       1.476906398680870E-003  0.972325557948459       1.266548749963647E-002
  1.223999412104024E-002  0.980918158438003       0.970708106411853       0.959334073694974       0.963064577753396       0.960178889449965        1.00415938681092       0.964710785169448       0.967813170414594       0.973689347853910       0.972012566547186       0.975671831011807       0.976585307985593       0.974972864577603       0.973342289465979       0.957194073153815     
  0.953912604901455      -5.228551442439898E-003 -1.274133235733591E-002   1.01210004139965        1.01330574480616       0.982441274724679       0.979876162340807       6.461398949915190E-003  5.908539564401187E-004  8.439931469472162E-004  5.212521938558344E-004 -6.154421169670877E-003   1.01139052845331        1.00708842343123      -1.034735325907376E-002  2.914588825162247E-002
  2.629370663324999E-002 -1.500768050966039E-002  9.353766226145114E-003 -1.542347905906521E-002 -1.835095809533541E-002  0.992043237428472       0.990141830344338      -1.253039908060171E-002 -1.527565512418357E-002  2.680524726475958E-002   1.01099580788963       1.199559981411619E-002  0.986530335746260       0.987118581974238        1.00305941273956        1.00906012223154     
   1.01192810032262       0.987740917264075       0.961878654316459       0.958930189642227       0.955698074418632       0.952164522827873      -2.885183393912285E-003  0.977875378414701       0.984965987291243       0.984381607646133       0.982671389900311        1.00921241553889       0.977552373136790      -1.223358321094887E-002  0.984139315130015       0.967135203863055     
  0.969050306560851       0.970399688792585       0.971570962150994        1.01110211107688        1.01167811343317      -8.735675009561513E-003 -1.794527426004366E-002  0.963474636383554       0.973884245130177       0.970958671462453       6.393504004099373E-003   1.00720445160218      -4.230709504899956E-003 -7.891737649964608E-003   1.01190388176876        1.00421525726211     
   1.00208902265016        1.01288675572209       2.280811038579225E-002  2.948102024935547E-002  2.676374092536027E-002 -9.267192300361833E-003  2.258136112423095E-002  2.437733386176402E-002  2.349525682304661E-002  0.978143151900799       0.976763740578686       3.400184134237597E-003  2.887318406717505E-003  0.999101614854389       9.619351106978974E-003   1.01397716202677     
  0.960938155315051       0.987669644225702       0.993428667685067       0.995279099336775       0.957757911328392      -1.202839397169702E-002 -1.511937525079161E-002  0.964644010318738       0.980273336200523      -1.518880666804849E-002  0.981298057308343       0.984515276976957       0.990891053439670        1.00651186344604       0.972974946446661       0.969144390199103     
  0.966074919768655       0.963784922836686       0.967762158649967        1.01334492439305      -7.389685545752130E-003 -1.093191543038092E-002  1.177999641637581E-002  2.441034997693707E-002  2.035877129693622E-002  1.757676431295747E-002  3.190649788433748E-002  2.945644665549083E-002  2.800562275988512E-002   1.00504787394886       1.461301042540442E-002 -1.656212768586084E-003
 -1.642081537536050E-003   1.01418112300131        1.01649055930719      -1.531836565077052E-002  0.954646551422853       0.951526955264266       3.240608886525330E-002  3.012459492653896E-002  2.787074334558535E-002 -1.247164426046015E-002   1.01386041670111        1.01755287060650       0.975412710534469       0.969962396128705      -5.314638680305663E-003  9.088702664274423E-003
  6.814570634364163E-003 -1.835630699625976E-002   1.01409864500247        1.01519460741972       2.482025909919412E-002  2.141260223329547E-002  0.965952283171406       0.967472514234434       0.968968625978838       0.969154632933099       0.997813936004907        1.00555903525062        1.00828996679528        1.00409013749572      -1.055959193330776E-002 -1.305751849022939E-002
 -1.522689334058162E-002  0.948338999283781      -1.069175707767913E-002 -1.410373398487156E-002  0.975315275825699       0.956136087745600        1.00907212195625        1.01191071310539       0.981181563761892      -1.402189988819025E-002  0.991289222995129      -1.770285236565032E-002 -2.099450270940434E-002  3.532183189498367E-002  3.314099053226320E-002  3.100314320676494E-002
  2.902902914099036E-002  0.972367035423966       0.975170440536979        1.00101106474621       0.999763588131657       2.369360278073235E-002   1.00721012328161       2.849139122070929E-004  6.187200447454525E-003  3.341894115467548E-003  0.966672497631223       0.969056959911465       0.978328949695877       2.458597864883874E-002  1.844752435407947E-002  1.579158957942915E-002
  0.999800650260172        1.00233940478114       0.998883815750624        1.00597528182950        1.01466298561499        1.01486567156771       1.285604128606352E-002   1.00359604453060       3.481219921478609E-002  3.191798746209264E-002  0.953080589494915       0.949819405967104        1.00542680176413       0.946246041597560       3.825363930555590E-002  3.601590477169438E-002
  3.389693998179956E-002   1.00903623991449       0.960889376944948       0.957399014533052       1.893964090602665E-002  0.962521377406203       0.985005300970044       0.977031582930008      -1.672666343131719E-002  0.965571547363998       2.070875895616433E-002  1.767028895649957E-002  0.964230765836301       0.966225026253189       1.350208562310058E-004 -7.014752033416785E-003
 -1.403350133689907E-002  9.859014838733743E-003  0.963864455911651       0.961658689728959       0.967995529581627      -1.758092088502819E-002  8.787782402706331E-003  0.954599478399722       1.448877724151269E-002  2.222812833056315E-002  2.564385462765511E-002 -1.241593555429277E-002 -1.535795160345754E-002 -1.380590951646141E-002 -1.712485044160659E-002 -1.760825800977039E-002
  0.954615314827422       0.958794895123623      -2.164252780139667E-002  4.128813058967350E-002  3.887757025692605E-002  3.652987926812627E-002  3.474013424671962E-002  6.814363670379512E-003   1.01242561515044        1.01700220963813        1.01895255797099        1.00978085018940        1.01668594953927       0.971751323599746       0.975152541110905       0.960594371243466     
 -2.196441218389521E-003  3.795909885520977E-002  3.518267675761173E-002  3.214575268891218E-002  0.951743301550233       0.947967696006480       2.409770365216211E-002  0.996740015869082       4.279097872653469E-003  3.952887041615154E-003 -1.797539449896078E-002 -1.577508122681454E-002 -1.764300092025797E-002  0.962579650044104       0.958678793414984       0.978128956296248     
  6.077159352809013E-003  3.950256634227634E-003  1.315027418520827E-002  1.147673973218268E-002  0.943411914182218       0.948593832366006      -1.838097568113901E-002 -1.830774847253407E-002 -1.761302073144664E-002 -2.140076784045799E-002  0.964896866404769       4.448003931717897E-002  4.202089715976481E-002  3.908183427961764E-002  1.957254280401357E-002  0.954273566409001     
  0.957694184939498       0.959865732295101       0.950735386686599       0.956431078496288       0.952872836622821       0.949260237739799       8.108226451418047E-003 -1.230093137189316E-002  0.997769348917537       0.974374462646477       0.973161880090285      -2.031049991064246E-002 -2.028159786642526E-002  0.970753732981070       1.615268415065500E-002  1.364772027913223E-003
  0.981450322606285       0.984496311510479       1.663468883237624E-002  2.095778626797920E-002  1.775082797505646E-002  1.437447131789924E-002  4.121030252317601E-002  3.855683144999092E-002  0.978779513828209       0.973571603075011       1.000230446613414E-002  6.692343085486582E-003  0.945145598751987       0.941648150470741       8.891565331024878E-004  1.107650258348287E-002
   1.01424830677342       0.960792752045236       0.956663538030451      -1.926065146986743E-002 -2.149701687697077E-002  0.938051646875350       0.934404040273959       2.316232699801080E-002  0.947199518300619       3.568906371883081E-002  3.249669903309240E-002  2.694966759609304E-002  4.779559235770055E-002  4.539924207599527E-002  4.294556898895326E-002  4.087410290288199E-002
 -3.308633826532136E-004  0.987705260444487       0.990934903164734       0.955106966810866       3.685081178823864E-003 -2.018021842305246E-003   1.01423324142003       2.442557018986540E-002  4.450643709780374E-002  4.189472629754262E-002  3.936900051073517E-002  2.031715334580233E-002  7.275399956770539E-003  1.347674327868371E-002  0.943688312744829       0.940100298073830     
  0.942439788631020       0.987668684033512       0.994130883771616       0.994199790352730       0.945489832073588      -2.278150201464916E-003  0.958712786395517       0.951363294739948       0.947592397394644       0.988684933810357       0.992373699827146       0.938344262405818        1.01079098713541       0.990942461334300       0.934543689459842       0.956685039388685     
  0.954673218525269       0.952525576732486       0.971710807236699       0.945743656955813       0.957554106571945       1.012279903396468E-002  6.516600631815908E-003   1.01653975859506        1.01512243206640        1.01655594425930        1.01878799488987       7.711501479071724E-004 -1.462898407094585E-003  1.072777819123711E-002  4.788059112341365E-002  4.511296798870188E-002
  4.255956890952753E-002  4.107410523519437E-002  0.950328324857361       0.946211306256928       0.930536436906197       2.122801969630322E-002  1.788163050249831E-002  2.692061272353861E-002  0.989627528607593       0.978362445895478       0.982240384692608       0.985976001407038       0.975075261709706       0.975065094283495       5.121625409271938E-002  4.878202985616494E-002
  4.631755905369224E-002  4.394359169041168E-002  4.086337179176701E-002  0.953628009014846       0.956032862793446       1.436383993729249E-002  1.718457324962353E-002  0.961586343552995       0.993301046153606       0.964111265890479       0.960091091426056       0.966665446018242       0.939960648640495       0.998169912610531        1.00116799936668       0.994337912565427     
  0.942298885166797       0.938608893704241        1.00202620734206       0.948695901877516       1.383712932136064E-002   1.01771268085149       2.854381884554116E-002  3.104564583901421E-003  0.936348700186499       0.952642737578796        1.00045361923523        1.00320010826220        1.00632727279435       0.967472660109000       0.944814556532721       0.949650740767654     
  0.945093396061222       6.711388863327827E-003  5.140959199670717E-002  4.849466887593762E-002  4.529319374201808E-002 -9.145277348742056E-003 -1.223880827556100E-002 -1.564614260841070E-002 -5.427894421485371E-003 -7.789331179333501E-003 -3.478555341652212E-003  0.987532310857688       0.979512402631118       0.999508481296279       0.944402144027182       0.936551696999296     
  0.932531846065659       2.496249649631818E-002  2.889487698054583E-002  2.426412043716526E-002  0.997029228111007       0.998373865187453       0.990909261734011        1.01807133925354        1.02014891000829       0.990443566359269       0.995965593305656       0.997088849218114       0.994220570115044       0.984311443774870       0.963116205499762       1.027163224309563E-002
  6.436398195776281E-003  0.934563803220903       0.950730550274408       0.948394431930453       3.189708475502726E-002  3.080352491753706E-002  2.882543706814932E-002  0.941972901582339       0.947324804478356       0.943907533136330       5.476526096306288E-002  5.225457125916518E-002  4.965733001094360E-002  0.983314872438324       0.986869589160308       0.987368881039545     