 VARIABLES = "X" "Y" "RO" "U" "V" "P" "M"
 ZONE T="  0.000000000000000E+000 " N=        9944  E=       19548
 ZONETYPE=FETRIANGLE DATAPACKING=BLOCK
 VARLOCATION=([3-7]=CELLCENTERED)
  -19.9782054645671       -16.7460447536127       -13.5432470514743       -10.4462771124608       -7.39483127129757       -4.39431260318683       -1.43672854734527        1.47853524247441        4.40194279230921        7.38347804238703        10.4122197804982        13.5308676756442        16.7310607632789        20.0189460056259        20.0156650185539        20.0123451374732     
   20.0090067226427        20.0056742799471        20.0022854763303        19.9988742323503        19.9954939648514        19.9920871178897        19.9886881104951        19.9853470049941        19.9820070605281        19.9783478910574        16.7317203104092        13.4557822172063        10.1645634122701        6.87452312340184        3.53259687976399       0.170578499054329     
  -3.16443525887912       -6.48474521199279       -9.79114624567630       -13.0836966857758       -16.3754018560739       -20.0188035791356       -20.0155069002833       -20.0121812769038       -20.0088400757232       -20.0054989473046       -20.0021446450312       -19.9987763328347       -19.9953939522161       -19.9920253568386       -19.9886729196427       -19.9853365630757     
  -19.9819979716434       0.998931810885741       0.997410766066546       0.995894178560224       0.994387889077067       0.992836944593922       0.991224966949176       0.989547100245981       0.987807839380018       0.986007071835063       0.984142467507218       0.982199993353041       0.980188217208763       0.978090915201638       0.975920804124145       0.973674024232574     
  0.971343156512102       0.968925651754061       0.966420694711209       0.963825970334032       0.961141849373562       0.958363350415777       0.955482657934001       0.952488644186904       0.949371886353751       0.946161177229410       0.942834813864693       0.939360178873906       0.935779747737109       0.932081391344911       0.928243617750449       0.924231465318964     
  0.920075644352012       0.915770907254894       0.911303361456681       0.906664035128772       0.901846487945724       0.896844205297725       0.891644612050216       0.886234955349654       0.880607586715644       0.874754755882217       0.868677627054412       0.862368987088038       0.855820904091500       0.849023378811280       0.841967564289961       0.834644989470069     
  0.827049289384161       0.819172046561010       0.811005001889819       0.802539775385755       0.793767522523407       0.784680584809954       0.775270044682445       0.765411759505894       0.755194611088399       0.744607147685772       0.733638656242408       0.722282068172627       0.710524943491172       0.698354552397422       0.685763531816538       0.672740002383588     
  0.659269916929025       0.645345736553364       0.630953809642809       0.616077279586392       0.600704849703819       0.584815703800328       0.568397173829653       0.551433600005259       0.534513977998834       0.517556148602986       0.500527850675808       0.483429182971027       0.466259798571694       0.448369934806812       0.431075854487992       0.414376215867142     
  0.398269526186037       0.382740013947057       0.367703107125931       0.353140589015495       0.339048520200913       0.325435855949322       0.312287679026249       0.299605124712726       0.287389202557044       0.275621668871321       0.264277504928429       0.253309240534302       0.242704276283862       0.232450231675807       0.222539855937670       0.212965054600572     
  0.203714142252974       0.194775870281763       0.186145628258640       0.177807146388520       0.169750722182163       0.161959332080094       0.154426130386251       0.147144713792431       0.140108970455301       0.133312673365240       0.126748913544791       0.120412107626456       0.114297033141498       0.108398368879898       0.102711565471940       9.723223560325392E-002
  9.195618060439652E-002  8.687990330131218E-002  8.199966122617314E-002  7.731168344656640E-002  7.289386185524675E-002  6.863942161134946E-002  6.455000915942563E-002  6.062386436865986E-002  5.686109412293037E-002  5.323971677486510E-002  4.977132051515559E-002  4.645379488652947E-002  4.326946100080559E-002  4.018924219987523E-002  3.721004379777586E-002  3.430915930108758E-002
  3.148696300486478E-002  2.874853123431254E-002  2.609672144385518E-002  2.353551473619491E-002  2.107103964189083E-002  1.871093017872516E-002  1.657271726875390E-002  1.451587465411210E-002  1.256000503317203E-002  1.072389027820023E-002  9.032049738883070E-003  7.420821966020844E-003  5.854997728395843E-003  4.436115285365407E-003  3.156165920991299E-003  2.053220773708880E-003
  1.186730722783639E-003  6.223036664672128E-004  3.704717876162534E-004  3.560630380864960E-004  6.707093371754896E-004  1.341403871899832E-003  2.318603718602545E-003  3.511858366766378E-003  4.850336269147104E-003  6.280091699492135E-003  8.002661353905791E-003  9.810278428507197E-003  1.171927289197155E-002  1.364302834835821E-002  1.561203467759628E-002  1.767494833271574E-002
  1.988292144227016E-002  2.220205449307742E-002  2.464233516578751E-002  2.714383986518345E-002  2.971424851997840E-002  3.239787934551686E-002  3.523450803194900E-002  3.822156177796884E-002  4.134850477929130E-002  4.460327903135979E-002  4.797499693970936E-002  5.145176391370879E-002  5.503018258037772E-002  5.871012784774365E-002  6.248425140508079E-002  6.671393774381047E-002
  7.108851581468119E-002  7.560540820486140E-002  8.026148466895071E-002  8.498791478003326E-002  8.985406096942754E-002  9.488625730505083E-002  0.100082414410802       0.105444635682631       0.110963185608992       0.116657540992147       0.122568751325684       0.128746588690573       0.135204059195511       0.141944336570951       0.148963922376138       0.156264039525905     
  0.163847789470128       0.171716198177780       0.179873230963982       0.188322382331117       0.197068117344048       0.206295646229670       0.215863265717017       0.225776722833432       0.236045088609939       0.246676639734188       0.257678516483727       0.269061077711303       0.280835078689269       0.293008028389550       0.305590729031631       0.318595477637351     
  0.332029735575184       0.345903374337144       0.360229748324534       0.375009078411167       0.390251918234910       0.405964237397315       0.422131416308872       0.438763611129078       0.455803300499997       0.473242027101658       0.490754048275884       0.508132899384355       0.525376834204364       0.542488223247158       0.559470768421785       0.576007356706737     
  0.592074663979279       0.607653281596845       0.622742374067892       0.637344253332103       0.651423390837728       0.664991382999795       0.678063676554877       0.690658311775823       0.702795684728817       0.714527084759205       0.725894264414421       0.736905341232194       0.747568664282140       0.757886496409930       0.767867278124893       0.777519846728246     
  0.786853013693127       0.795789269475888       0.804397411199588       0.812682279381288       0.820649772966372       0.828304546851571       0.835650941485348       0.842696185439887       0.849502560444506       0.856099830667602       0.862491086523037       0.868680108211927       0.874670756256824       0.880467010787242       0.886072152904784       0.891489283312785     
  0.896721837756901       0.901774149701021       0.906653915233748       0.911365659052110       0.915913862353516       0.920110204590074       0.924191291464866       0.928155253457236       0.932004964286894       0.935725557285313       0.939314044561593       0.942776758687667       0.946105985767454       0.949305325970685       0.952390053856262       0.955336197039633     
  0.958150382704382       0.960888760471437       0.963548295887363       0.966127162868354       0.968624118250599       0.971038589886206       0.973371751778987       0.975624646733856       0.977800578278541       0.979903436363612       0.981885256995213       0.983812922304639       0.985671828684063       0.987466705621495       0.989201503645476       0.990877515051575     
  0.992490313858035       0.994041166797680       0.995532578077898       0.997020190896793      -8.883474514630859E-004 -7.252854367444902E-004 -7.932375517571839E-004  0.995167094914545       0.996611195063878       0.995159491717448       0.996419787880980      -2.290881019806768E-003 -2.976658786199753E-004  0.994862148940716       0.995642013612338      -1.918624447341895E-003
  0.993774194121214      -2.214834887200953E-003  0.993322197321513       0.991671566841868      -3.872981737939055E-004  0.992051396162848       0.993034725075201      -2.173752589365554E-003 -3.777943605151669E-003  0.994173510996086       0.994338209918132       0.998054227681791      -1.345440940874212E-003  4.171749318139212E-004  0.990299263699014       0.988527255211788     
  0.986751317656829       0.991144595769533       0.997368491036819       0.992663444282102       0.990462601545976       4.463383196674867E-004 -1.772308059780742E-003 -3.841914392091445E-003  0.992033988779406       0.996623940791735       0.999701190159751       0.997322342875895        1.00037786315255      -3.237490373603118E-003  1.407276641865822E-003  0.995760429435408     
  0.996124372367906       0.998689676981659       0.988737512570554       0.989313155760039       0.987460376568774       0.985545028806204       0.990191051950950       0.991970052668855       1.586329446828624E-003 -4.180985289941565E-004  4.322171005999631E-003   1.00148981694192       0.989727412093704      -5.205165234834769E-003  2.640434251269265E-003  0.990150537010741     
  0.986861335245493       0.988249529557774       2.873906274739968E-003 -3.864020434038007E-003  0.990892993974067       0.999102760528378       0.998575066054271       4.083348920365595E-003  0.988318521961270      -2.510528341258517E-003 -3.646569869058401E-003   1.00239755838748        1.00046956006367       0.994046862089180       0.998187671377869        1.00026482707383     
  0.992939213945640       7.378717225633684E-003 -2.187235160829531E-003  0.998840372668756       0.997995713309693       5.697667305570957E-003  0.984903674561942       0.982925584175440       0.991131215189968       0.997243591530697       0.986155332772291      -5.648755504128626E-003  0.987558907994880       9.031834964704683E-003 -4.778406859752978E-004  6.758098197548492E-004
 -5.245707242341449E-003  0.983448017438713        1.00267966771019       0.986330328737708       0.984122165043955       0.997010029533459       0.994974958512211      -1.465797910693974E-003   1.00326841869234        1.00515061965538        1.00099675988120       0.984016964861716       0.981776539298541        1.00011242475399       0.993434046209847       0.985375209794382     
 -4.688420719595234E-003  5.674283993638613E-003  2.180065500152994E-003  7.421174464117721E-003 -7.020146895314025E-003 -1.360668036419748E-003 -1.127787500279111E-004  7.885648698863133E-004  2.099728922149372E-003  0.993926957646676        1.00185144164925       0.994855243365836       0.987459213072272       0.991747836379999       0.981065973576397       0.978905173454500     
  0.981896928551552       3.780471543276553E-003 -5.429072681286834E-003 -7.279244043982344E-003  0.976752010059351       0.988965460356395       5.956377936332932E-003  0.985177678448397       0.990169277219393       0.992887330910406       0.999624653451724       0.998857530317073       3.781006844756936E-003   1.00460487183227        1.00357208077399       0.995774756552291     
  0.997729690657646       6.200168981530449E-003  0.999226819540458        1.00153278408189       1.078803399564522E-002   1.00216382394089        1.00609737950716        1.00385021758337        1.00645197907491       0.989271410951462       0.992463087508400       0.988292092519946       1.553597783321837E-003  7.763345043648616E-003  0.989217168017266       0.985101055917670     
  0.982440399003055       8.812109910852267E-003 -5.824398080915505E-003 -3.562695800248315E-003 -2.527632191119038E-003 -3.773784422245557E-003  0.990553391520898       0.991670428256759       0.979773940629719       0.977575586548950       0.975191276769326       1.165703975201996E-002  0.991295668381700       0.995217214735050       0.994190890975919       0.996336389540663     
  5.576938135725964E-003  1.363631545907710E-002  0.986902149150449       0.986599159070348        1.00245526713062       0.988493799463529       9.683068369087319E-003  0.986531063852038      -3.832527243654422E-003 -7.783497851166519E-003  0.980569352121706       0.979391083386250       1.275447775794208E-002  0.981173095958553       0.976907831877034      -5.794063961635229E-003
  0.984662905018931      -7.370099452695301E-003  1.081435700645020E-002  0.993825934339889      -2.613857952152444E-003  3.584928020418352E-003  0.974631894704929       1.164420757564270E-002 -1.210566574614053E-004  1.421182925659719E-003  1.565921167737444E-002 -9.620042583665862E-004  7.534410896537527E-003  0.978019969665006      -6.245199084777955E-003 -8.934498385481790E-003
  9.595841213045051E-003   1.00479941550322        1.00769652426859       0.978665920785415       0.976209016534983       0.973087897172408       0.983759801809152       0.981612626349305       0.992917059460885      -1.145341684582998E-003  1.358678841771163E-002 -9.620238619961958E-003  0.975995401553086       0.973635760857213       1.484466168137215E-002  5.191244425110739E-003
  8.570521975604480E-003  1.169028591566346E-002  0.972282866412896       0.969903381859481      -7.970489694136601E-003 -1.013167872552373E-002  5.985745658968018E-004  1.297750353379412E-002  0.983006530926505       0.980188081879243       0.982078752405597       0.979458049277006       0.980113741512191       0.979666270438490        1.00812988075233        1.00486306135212     
 -5.546852305464599E-003  9.577155575942618E-004   1.00139405820237        1.00063768729399       0.984081106939103        1.00347759100274        1.00312404137219       0.971146554127836       1.702801761384108E-002  0.981129176936641       0.982519490007928       1.094328914997186E-002  0.997925857422626       0.988833599218326       0.968576541553914      -3.658654155144396E-003
 -5.102982577070439E-003  0.984790411722960       0.995279996572006       1.519584641015938E-002  0.978784091451409       3.201692929015271E-003  1.781008298055790E-002  1.562330889843598E-002  0.972718433037089        1.00710158800711       0.977828635567956        1.00057431382864       0.999502051204459       0.977631251045780       0.996785219784843       1.327550252976428E-002
 -3.938112081704626E-003 -7.974941522641554E-003 -2.239678068242988E-003 -9.803249372193727E-003 -9.531021422162679E-003  3.340551018933840E-003  0.974849226401605       0.975191558483820       0.972618864371510       1.134211937066381E-002   1.00875047048871       0.970017935617562       0.967546568598774       7.360736381057962E-003  0.970911700550634       0.965054279789529     
  0.962812254617103       8.649633262718986E-003 -7.827090085081581E-003 -1.072713116287776E-002 -1.923106842563422E-003  2.010751304498242E-002  1.789684168600369E-002  0.995661340710571        1.00230278296155      -1.164558054799017E-002  0.982156327527933       0.978974542176072      -2.874129674416961E-004 -6.821573747690348E-003  1.550385258082245E-002   1.00121399529419     
 -1.026624977731170E-002 -1.262020952465749E-002  0.976975674768541       0.976497890101874       9.656974687376198E-003  1.027738942524553E-002  0.986879821057173        1.01022152792079       0.989777309295547       1.552238199261390E-002  2.593026118092906E-003  0.968699845578399       0.966202744859689       0.963562990945513       0.960497263520340       1.748725660226624E-002
  1.754578150667427E-004  0.969919096895085       1.364484944037830E-002  1.932952860034948E-002 -1.203733188662632E-002  0.992673138826153       0.994076045253003       0.996814004911850       7.306579829780347E-003 -6.461949615744195E-003   1.00542669077954        1.00538887763488       0.967084804789587      -5.261125393376381E-003 -4.870701871475243E-003  4.826648574969227E-003
  0.970087168472102       1.249262290592553E-002  0.998424982822283        1.00011649864890       2.250827115357329E-002  2.032846993590337E-002  1.797748804587467E-002 -3.425946931928089E-003  2.174039778870909E-002  0.974350834352687       0.971536507540944      -1.443118138514220E-002  0.987256399544578      -1.018052404275534E-002   1.00986062955664       1.558335331021953E-002
  9.055698269144983E-003  1.990251746658201E-002   1.00402319478821       0.967506758177827       0.964923565989472       0.995452188356467       0.961952430593622       2.492064792981542E-002  5.983993918331401E-003  2.283323265719509E-002   1.00802267882423       7.192424799164324E-003  4.478191131979440E-003  4.166643524907152E-003  1.789155093744318E-002  3.146213603869014E-003
 -8.397253864239000E-003  0.989753769891985       0.984770134481567       0.982757309362242       0.985169595440601       0.987205398460673       0.994355528709493       1.539338830641820E-002 -1.263970632239595E-003  0.965687613644149       2.051106561675259E-002  0.968784469096468       0.990216246161542       0.989232187072442       0.986877152820442       0.984665837618996     
  0.987560783569894       0.988498082185274      -1.212246680908266E-002 -3.121017004918234E-003  0.999634582346217       0.983891601071678       0.967778118307719       0.997297352249952       0.996076412281700       2.728841044060341E-002   1.00751278541272        1.00574539284870        1.00927514385888        1.01096798923098      -1.266077099859076E-002 -1.527664137613791E-002
 -8.045581830241259E-003  2.062390442157637E-002  1.809265221332061E-002  1.532223386123415E-002 -9.646900055334300E-003  0.990078518380304        1.00836913880721       5.997895623619949E-003  0.979898892841599      -6.707493841277100E-003  0.991749956600116       0.992457186614095       0.993614529689181       1.960775004663591E-003  0.971640577575657       1.325709419349833E-002
  1.283598430979095E-002  0.980362051445061       0.970022353474565       0.958635054696434       0.962563581283133       0.959689164775369        1.00354173368187       0.964203601638261       0.967124691549742       0.973007015049393       0.971328906249607       0.974991758989746       0.975906640443563       0.974292466006236       0.972660220942780       0.956716215960740     
  0.953447921049476      -4.794968031407151E-003 -1.241566895049774E-002   1.01146622677174        1.01266985606637       0.981769732342067       0.979201447257091       6.370185538179000E-003  5.619399240539673E-004  1.341499803974170E-003  1.032574887926911E-003 -6.121544981751706E-003   1.01074909943199        1.00644161197296      -9.963363195582652E-003  2.987702376909214E-002
  2.700076104983020E-002 -1.483151856974031E-002  9.929383986419796E-003 -1.511264282775317E-002 -1.805436987594579E-002  0.991380747155071       0.989477032729500      -1.229029770837980E-002 -1.502482183859154E-002  2.658560677379742E-002   1.01037617555267       1.259542084818488E-002  0.985862430252603       0.986451038350021        1.00245396560972        1.00844414080795     
   1.01131296829155       0.987073739635659       0.961382066819451       0.958445080733153       0.955225491107202       0.951705822003436      -2.409990529168340E-003  0.977327885804435       0.984296735763963       0.983711966131994       0.982000242417582        1.00856659243241       0.976874777297649      -1.187860633263127E-002  0.983469168195104       0.966445300416916     
  0.968363863314405       0.969714972335956       0.970887668007770        1.01046320712152        1.01103496955611      -8.324545844480766E-003 -1.774667340601697E-002  0.962972721036902       0.973345517277097       0.970429560186333       6.950182130394475E-003   1.00659233763784      -4.224473673875488E-003 -7.830891248314150E-003   1.01125923991175        1.00360306721803     
   1.00148979917936        1.01226347328265       2.348855178319319E-002  2.924525442589640E-002  2.654666583851494E-002 -9.215631874205280E-003  2.238580320074690E-002  2.417027368357365E-002  2.329633430266651E-002  0.977598222691483       0.976085226363625       3.940034415563801E-003  2.825005511491873E-003  0.998506308410376       9.506264161601165E-003   1.01333859857144     
  0.960445756825675       0.987101320905849       0.992766930825920       0.994618331243485       0.957055862883029      -1.163521714276630E-002 -1.496847790867382E-002  0.963952359378502       0.979599174250295      -1.485717681531662E-002  0.980746682158728       0.983958350569763       0.990319868063736        1.00586342723537       0.972440958270776       0.968620222441977     
  0.965563076323611       0.963283785331085       0.967244633443565        1.01271527418831      -7.365635454665198E-003 -1.085387136547734E-002  1.238351631484299E-002  2.510283980203736E-002  2.102113064742406E-002  1.822097712615610E-002  3.265616327333961E-002  3.018962739154600E-002  2.872573280406605E-002   1.00444511588584       1.523913438557152E-002 -1.665443636041377E-003
 -1.665335570455604E-003   1.01355492180752        1.01586295168975      -1.496496964712046E-002  0.953941695936811       0.950819435220464       3.215538259587777E-002  2.988749174157860E-002  2.764750149899995E-002 -1.240337621230706E-002   1.01321956644041        1.01691508323301       0.974871425487092       0.969439359905254      -5.313511876879222E-003  9.669852417407920E-003
  6.717038148237780E-003 -1.809529492730544E-002   1.01348021709366        1.01458054778644       2.461311366991480E-002  2.122616434103222E-002  0.965263081662974       0.966785440025955       0.968283112510972       0.968469719256769       0.997225889704227        1.00495112796635        1.00768298225116        1.00349374347510      -1.013965914240042E-002 -1.268457081277333E-002
 -1.485060262862469E-002  0.947628704561922      -1.064792110617001E-002 -1.404502741995918E-002  0.974776506289296       0.955433788190109        1.00842495044675        1.01126492422324       0.980508047663794      -1.392857776546937E-002  0.990624870311814      -1.753993095138521E-002 -2.081239211178310E-002  3.505832329569952E-002  3.289011057605830E-002  3.076397645997482E-002
  2.880055317937552E-002  0.971838453901697       0.974635669010278        1.00041836079857       0.999178206740857       2.437898306832897E-002   1.00661110789083       8.073948395136186E-004  6.752279301623545E-003  3.892820497807533E-003  0.966162537607288       0.968540756619923       0.977787583716924       2.438225529712356E-002  1.827833506936416E-002  1.563745535103974E-002
  0.999144886906534        1.00168569286952       0.998226153503338        1.00538112606078        1.01402105770055        1.01422212534631       1.271979186458320E-002   1.00294444030494       3.558085810844711E-002  3.266614451456897E-002  0.952375802430976       0.949111860109583        1.00477528499297       0.945535489190609       3.797838963421575E-002  3.575351204595896E-002
  3.364591274606167E-002   1.00844135936208       0.960193389287443       0.956699128818265       1.876715166533112E-002  0.961828569732628       0.984335368241632       0.976353387523989      -1.658948302358779E-002  0.965067854164015       2.137550150507261E-002  1.831920218441498E-002  0.963540673802246       0.965537323157952       6.677045653124839E-004 -6.574181012369129E-003
 -1.362852820983412E-002  9.740407219703600E-003  0.963365216137877       0.961167735797377       0.967486867918139      -1.734925549197434E-002  9.373137471645027E-003  0.953896848270968       1.512019704397798E-002  2.203751225894887E-002  2.543405170803227E-002 -1.231192801724827E-002 -1.524148911726481E-002 -1.367612346969484E-002 -1.701820877279825E-002 -1.727430188786080E-002
  0.953914250325839       0.958098176298034      -2.136726620473982E-002  4.100097083271871E-002  3.860448811297076E-002  3.626823027700986E-002  3.448855955608317E-002  6.711263498686887E-003   1.01181632870630        1.01638534657397        1.01833933974420        1.00916846554541        1.01607776755410       0.971229349817610       0.974622826850843       0.959900698605322     
 -1.697947740338540E-003  3.874686760920194E-002  3.595058722605013E-002  3.289188346758086E-002  0.951038716377494       0.947260321722298       2.478937111348909E-002  0.996158625028439       4.197307947180067E-003  3.868136671001201E-003 -1.785161918734144E-002 -1.569224010993498E-002 -1.757015000413007E-002  0.961888599350263       0.957984230123633       0.977451912097690     
  6.648723560354269E-003  4.515508444818494E-003  1.301008930413716E-002  1.208460044636745E-002  0.942700778794399       0.948150966132815      -1.802881388303531E-002 -1.792261281274728E-002 -1.729316044992046E-002 -2.108582456716840E-002  0.964208250231325       4.418100307555347E-002  4.173489862531463E-002  3.881070228571241E-002  1.939644577744336E-002  0.953806714719259     
  0.957214183123715       0.959378737228428       0.950282973055719       0.955956643141295       0.952412207452217       0.948813946164206       8.697480569776320E-003 -1.226094372236042E-002  0.997193722682039       0.973693454076173       0.972480441315725      -2.019095519212463E-002 -2.013625292114406E-002  0.970240459356099       1.599578359713343E-002  1.299239386535098E-003
  0.980904019460730       0.983945554470442       1.647413537259669E-002  2.163002329533710E-002  1.840552511933922E-002  1.501248814489237E-002  4.201628852997396E-002  3.934478962555983E-002  0.978240695382086       0.973054244817397       9.878438629123404E-003  6.583904460534316E-003  0.944716536907469       0.941232858580592       8.181189519389833E-004  1.169040412347191E-002
   1.01360278830347       0.960100722919015       0.955968128848122      -1.916452557311123E-002 -2.141217343057334E-002  0.937650777288281       0.934017986986159       2.296697524367337E-002  0.946761569067150       3.645673920702815E-002  3.324167480089990E-002  2.673433206400219E-002  4.748567289764112E-002  4.510183184810673E-002  4.266007732861545E-002  4.059840428229296E-002
  2.094711510837895E-004  0.987144209968429       0.990370697185336       0.954638670393347       3.596310755888519E-003 -2.061682275344500E-003   1.01362954168622       2.512121845057399E-002  4.532897347786481E-002  4.270055594046517E-002  4.015904716768783E-002  2.013702704464965E-002  7.870894160394128E-003  1.333196507749674E-002  0.943263713725004       0.939689369195507     
  0.941725674173452       0.987114210528293       0.993557031775638       0.993633352881560       0.944777362191813      -2.335480332619188E-003  0.958230668361237       0.950908962077296       0.947152360766484       0.988017930568007       0.991709550094367       0.937627227064433        1.01018927805348       0.990384848370487       0.933824264023675       0.955987666695630     
  0.953975158105357       0.951826918569551       0.971028697737176       0.945310838840751       0.957078790891174       9.993337878642561E-003  6.401885753672977E-003   1.01591778551333        1.01449031504534        1.01592132873194        1.01815788471008       6.938612956544578E-004 -1.535239713183500E-003  1.134901466887371E-002  4.871905529547506E-002  4.593318974973430E-002
  4.336604952385038E-002  4.186904352735964E-002  0.949624173432225       0.945504505570037       0.929814530828999       2.190544311271280E-002  1.854279005542423E-002  2.763230756716798E-002  0.988960640916145       0.977686057217799       0.981567738945937       0.985306409833006       0.974395753022586       0.974386209694574       5.089595566401269E-002  4.847439914183277E-002
  4.602150895491160E-002  4.365794437053708E-002  4.059321345428093E-002  0.953166271236476       0.955564555458346       1.500922857546194E-002  1.701971786709977E-002  0.961094008892116       0.992636827376858       0.963615450050784       0.959609312924935       0.966165287266459       0.939245945355659       0.997510810654266        1.00051085965651       0.993777509348067     
  0.941877963897471       0.938202304088045        1.00144421565064       0.947992204768227       1.368726108832481E-002   1.01711108036243       2.926405956542475E-002  3.011451034742199E-003  0.935952568170644       0.951941781292043       0.999881354191909        1.00260961472838        1.00573902481636       0.966786726390596       0.944108590284610       0.949202210144846     
  0.944661135867191       7.314760681173590E-003  5.226418914851264E-002  4.933059456637186E-002  4.611092664640902E-002 -8.701499583737064E-003 -1.181210204506498E-002 -1.522634195309535E-002 -4.955267049963449E-003 -7.318848366741065E-003 -2.975515988502573E-003  0.986984451833112       0.978837471634393       0.998849338545874       0.943973441197809       0.935835182047759     
  0.931812978747955       2.566166260544872E-002  2.961619626936389E-002  2.406434044663528E-002  0.996461825663649       0.997811043393353       0.990358158989103        1.01743120599991        1.01953177450191       0.989776729250370       0.995304283607081       0.996427157728298       0.993556167254151       0.983766761429970       0.962426671352587       1.013625431265989E-002
  6.315137665739178E-003  0.934172844189885       0.950029317790048       0.947692775946492       3.165624016061195E-002  3.056931190552700E-002  2.860332610080852E-002  0.941263246894815       0.946621367242859       0.943202450851443       5.443482780734049E-002  5.193676992043704E-002  4.935205090778037E-002  0.982643084885223       0.986200256802286       0.986699736444009     