 VARIABLES = "X" "Y" "RO" "U" "V" "P" "M"
 ZONE T="  0.000000000000000E+000 " N=        9944  E=       19548
 ZONETYPE=FETRIANGLE DATAPACKING=BLOCK
 VARLOCATION=([3-7]=CELLCENTERED)
  -19.9782054645671       -16.7460447536127       -13.5432470514743       -10.4462771124608       -7.39483127129757       -4.39431260318683       -1.43672854734527        1.47853524247441        4.40194279230921        7.38347804238703        10.4122197804982        13.5308676756442        16.7310607632789        20.0189460056259        20.0156650185539        20.0123451374732     
   20.0090067226427        20.0056742799471        20.0022854763303        19.9988742323503        19.9954939648514        19.9920871178897        19.9886881104951        19.9853470049941        19.9820070605281        19.9783478910574        16.7317203104092        13.4557822172063        10.1645634122701        6.87452312340184        3.53259687976399       0.170578499054329     
  -3.16443525887912       -6.48474521199279       -9.79114624567630       -13.0836966857758       -16.3754018560739       -20.0188035791356       -20.0155069002833       -20.0121812769038       -20.0088400757232       -20.0054989473046       -20.0021446450312       -19.9987763328347       -19.9953939522161       -19.9920253568386       -19.9886729196427       -19.9853365630757     
  -19.9819979716434       0.999151380349651       0.997631182437988       0.996115508971695       0.994610194352240       0.993060321395583       0.991449527891993       0.989772967110466       0.988035135545887       0.986235924961857       0.984373010895614       0.982432376834942       0.980422585677245       0.978327432054055       0.976159621195722       0.973915297104239     
  0.971587047682653       0.969172324311556       0.966670308911292       0.964078683816388       0.961397812390531       0.958622710767916       0.955745563079418       0.952755243893214       0.949642328967465       0.946435561089852       0.943113248353766       0.939642795636647       0.936066609205696       0.932372556724436       0.928539152687614       0.924531454714966     
  0.920380118751553       0.916079884798461       0.911616857349126       0.906982056886026       0.902169034013517       0.897171266738626       0.891976179553801       0.886571020583639       0.880948139700743       0.875099787193825       0.869027123455459       0.862722940192483       0.856179312394649       0.849386250140684       0.842334915624259       0.835016846939009     
  0.827425686851300       0.819553026337615       0.811390613664140       0.802930075004536       0.794162570707459       0.785080444806880       0.775674781130161       0.765821494315049       0.755609411883334       0.745027078155297       0.734063773458451       0.722712418436071       0.710960562106798       0.698795460535412       0.686209730497993       0.673191470189142     
  0.659726605780613       0.645807563424155       0.631420652429527       0.616548970712294       0.601181166091723       0.585296360877126       0.568881813610602       0.551921782202338       0.535005077520817       0.518049519477897       0.501022811180651       0.483925010752018       0.466755732104136       0.448865132652750       0.431569493222487       0.414867534395918     
  0.398757828455053       0.383224666786235       0.368183517162190       0.353616210636615       0.339518857966985       0.325900469371466       0.312746172061146       0.300057151016626       0.287834464910457       0.276059906692731       0.264708485936361       0.253732740065079       0.243120094749204       0.232858192194133       0.222939806156907       0.213356864460999     
  0.204097699130810       0.195151077289353       0.186512408878430       0.178165431532663       0.170100454552240       0.162300456313895       0.154758602104708       0.147468499055420       0.140424045148117       0.133619022139631       0.127046527981508       0.120700987060089       0.114577184409718       0.108669805480868       0.102974308058026       9.748631170366769E-002
  9.220162444839447E-002  8.711675659008385E-002  8.222797244024564E-002  7.753150750486497E-002  7.310541534554602E-002  6.884274017867820E-002  6.474514148370315E-002  6.081086601255620E-002  5.704003177606451E-002  5.341061918671238E-002  4.993425079113238E-002  4.660882175616216E-002  4.341661981271681E-002  4.032849934257005E-002  3.734135584057031E-002  3.443241539348768E-002
  3.160204093719747E-002  2.885530943646252E-002  2.619507136198922E-002  2.362530262068692E-002  2.115213248552836E-002  1.878320094206659E-002  1.663649660451309E-002  1.457094582338966E-002  1.260619476927164E-002  1.076107739228588E-002  9.060214991955622E-003  7.439545980230392E-003  5.863461022037802E-003  4.433941059020434E-003  3.142676220607907E-003  2.027668721524948E-003
  1.148511540346484E-003  5.714757962051590E-004  3.083804765498693E-004  2.828732167830805E-004  5.838996730155766E-004  1.242071423348812E-003  2.208151899884889E-003  3.391918273856135E-003  4.722372124510671E-003  6.145354619945241E-003  7.861365545870710E-003  9.663405041451502E-003  1.156756090919284E-002  1.348727064245415E-002  1.545281502553610E-002  1.751269675098574E-002
  1.971797876758962E-002  2.203479749085661E-002  2.447311763759607E-002  2.697303980127656E-002  2.954220648118639E-002  3.222489751491937E-002  3.506087481954696E-002  3.804757121195345E-002  4.117445286494142E-002  4.442945794433295E-002  4.780169027094981E-002  5.127924283720810E-002  5.485870559698002E-002  5.853994167986847E-002  6.231558833796870E-002  6.654718961015237E-002
  7.092394766744010E-002  7.544327323419707E-002  8.010202319014277E-002  8.483131298223537E-002  8.970053297327982E-002  9.473602387025860E-002  9.993568533443792E-002  0.105301612086916       0.110824051258367       0.116522482648016       0.122437974945413       0.128620326406280       0.135082542183530       0.141827786734516       0.148852546353234       0.156158031305984     
  0.163747331107989       0.171621457770820       0.179784364439124       0.188239532850216       0.196991415843852       0.206225335534454       0.215799471195608       0.225719556638724       0.235994651744285       0.246633021279156       0.257641792638423       0.269031313481931       0.280812327567521       0.292992329771893       0.305582109358248       0.318593950086249     
  0.332035296112539       0.345916001600531       0.360249403596303       0.375035697420117       0.390285414539513       0.406004498532526       0.422178294283742       0.438816932788459       0.455862843297609       0.473307542388685       0.490825167501096       0.508209201845502       0.525457923917523       0.542573734607331       0.559560370890138       0.576100688886389     
  0.592171413353948       0.607753184608753       0.622845217192568       0.637449869472767       0.651531647294340       0.665102184783204       0.678176961168875       0.690774044097520       0.702913852369678       0.714647700152220       0.726017360027650       0.737030959506593       0.747696854498691       0.758017310132429       0.768000767764802       0.777656063002922     
  0.786992003122447       0.795931044480280       0.804541991764055       0.812829672449966       0.820799971098178       0.828457526504759       0.835806662075121       0.842854590170799       0.849663598101623       0.856263444336518       0.862657203767947       0.868848642086012       0.874841606558117       0.880640065779945       0.886247291136231       0.891666375983090     
  0.896900751526687       0.901954749802770       0.906836069303398       0.911549238675212       0.916098745550622       0.920296227148932       0.924378365713806       0.928343299956779       0.932193914454853       0.935915350473248       0.939504631691629       0.942968104419400       0.946298065071893       0.949498125847799       0.952583575067340       0.955530443561274     
  0.958345366938346       0.961084516203086       0.963744862975407       0.966324586275746       0.968822446810420       0.971237875065696       0.973572046975818       0.975826005978172       0.978003056239911       0.980107087963720       0.982090104403399       0.984019022176780       0.985879224932565       0.987675440689874       0.989411618049299       0.991089045205402     
  0.992703286522305       0.994255603252184       0.995748495260641       0.997237658259660      -9.548341162577438E-004 -7.812486153450583E-004 -8.705781476390419E-004  0.995389491826933       0.996833071688714       0.995382952914161       0.996635944010086      -2.360843028004479E-003 -3.423627822416443E-004  0.995076976457269       0.995857056937796      -1.968962760314677E-003
  0.993997575661751      -2.275447806526739E-003  0.993535801985746       0.991883698977712      -4.771424881295325E-004  0.992276089824030       0.993259666450610      -2.253736130148205E-003 -3.842592410500422E-003  0.994387570465945       0.994551924098796       0.998271651863052      -1.384590437988507E-003  3.844268908477067E-004  0.990525233964509       0.988754535738526     
  0.986979974577043       0.991370749962334       0.997584790198667       0.992876327739362       0.990673640846518       3.439913133333677E-004 -1.866115137481117E-003 -3.914136744028780E-003  0.992260430407213       0.996839135453869       0.999919485604382       0.997545153425805        1.00059752191396      -3.282406503698005E-003  1.386583981688218E-003  0.995974330119353     
  0.996348806576363       0.998910725189182       0.988947340498422       0.989540478545434       0.987688916409249       0.985774871948040       0.990401988042109       0.992181887476068       1.474137057255578E-003 -5.229418729763031E-004  4.193733931406890E-003   1.00170858698129       0.989937615942753      -5.272591634384450E-003  2.631523345912517E-003  0.990378029592054     
  0.987069732743972       0.988458879222056       2.753087252542771E-003 -3.945860621022916E-003  0.991120747976483       0.999325282381370       0.998791401492574       4.085868211962566E-003  0.988547015663386      -2.544244334778646E-003 -3.702065534226324E-003   1.00261744213880        1.00068699387477       0.994272260594467       0.998411333744835        1.00048793053544     
  0.993165993405858       7.402347531826930E-003 -2.287255108350771E-003  0.999057521959530       0.998210909452075       5.711291853885734E-003  0.985110704097725       0.983131281874880       0.991342042294071       0.997457562468713       0.986363327429233      -5.722598979259749E-003  0.987767801158422       9.063499932563704E-003 -5.053241719294145E-004  6.600877890540107E-004
 -5.295898090116414E-003  0.983679526977549        1.00289780237391       0.986560171547868       0.984353849312661       0.997235239753052       0.995200881822241      -1.488068771404609E-003   1.00348752250061        1.00536944486965        1.00121825720480       0.984223613453882       0.981981811375932        1.00032874149870       0.993646383531449       0.985582863793410     
 -4.727741433759016E-003  5.693726924895306E-003  2.058363495711150E-003  7.448696613109287E-003 -7.064574029472219E-003 -1.467088490356467E-003 -1.235105556354758E-004  6.750447253665415E-004  2.095727189768050E-003  0.994154071162603        1.00206860401391       0.995067901564061       0.987688858573875       0.991975969878670       0.981300038876775       0.979141217203273     
  0.982130850879192       3.788237621236843E-003 -5.489499422241817E-003 -7.345241430797544E-003  0.976990186140891       0.989175028055122       5.821177379973100E-003  0.985407442784637       0.990379277388670       0.993115896863309       0.999839794930131       0.999071515258327       3.651947076157556E-003   1.00482487764517        1.00379337193334       0.996001128840824     
  0.997955880453473       6.227290803326757E-003  0.999451237474733        1.00175656528089       1.082871135780177E-002   1.00238012812146        1.00631863048609        1.00406768939899        1.00666983737720       0.989500753404904       0.992674368013712       0.988501258051775       1.554640254967231E-003  7.621947653786885E-003  0.989445629603012       0.985332698109883     
  0.982674568213775       8.847085133227619E-003 -5.907530149574539E-003 -3.662465270018397E-003 -2.544708428340797E-003 -3.801994700368402E-003  0.990783180031786       0.991900606963629       0.980009527169152       0.977813039456399       0.975431006623840       1.150571969984629E-002  0.991506056961534       0.995444673272353       0.994419923681622       0.996549209723505     
  5.441217370394760E-003  1.348138274712203E-002  0.987110726408935       0.986807523884371        1.00267797334788       0.988724694714791       9.536275308912904E-003  0.986762672884666      -3.925040744700086E-003 -7.859001352579829E-003  0.980804704093529       0.979594810166464       1.280454950205136E-002  0.981377791522470       0.977110175927807      -5.885643487601758E-003
  0.984870224628720      -7.425190595156896E-003  1.085949565373283E-002  0.994037536680278      -2.721584300372448E-003  3.598280426467769E-003  0.974833157920386       1.149311421935844E-002 -2.358059304097324E-004  1.298604282061277E-003  1.550115912598026E-002 -9.677604032327891E-004  7.392682563104265E-003  0.978223036077871      -6.278576563084426E-003 -8.972355826287626E-003
  9.448865462655233E-003   1.00502195517632        1.00791903415855       0.978902638462728       0.976447970789434       0.973330842895210       0.983993539656709       0.981847982832082       0.993147736584192      -1.261134760808585E-003  1.343273682080718E-002 -9.680081267671028E-003  0.976197612290768       0.973836893133521       1.490362082724607E-002  5.054966875946617E-003
  8.610440306099683E-003  1.153923100920958E-002  0.972483051493389       0.970102537952501      -8.054321035552111E-003 -1.020832635766383E-002  4.752511138194685E-004  1.303199145906122E-002  0.983212782694958       0.980392488743248       0.982284468165860       0.979662287464816       0.980349789725432       0.979903358152905        1.00834898732142        1.00507980703387     
 -5.646041412845989E-003  9.640410577387809E-004   1.00160914951564        1.00085164103293       0.984287907890649        1.00370098250603        1.00334840967113       0.971346600349726       1.709540662733215E-002  0.981334385802459       0.982725475661862       1.099346855335915E-002  0.998138748467468       0.989042854149726       0.968775562195511      -3.670528471264671E-003
 -5.125599716277194E-003  0.985023907292428       0.995491772425148       1.525863087330878E-002  0.978988175213850       3.071955799866757E-003  1.764912480758277E-002  1.546629996739023E-002  0.972960996327306        1.00732172968930       0.978066622569835        1.00079947679535       0.999728968435578       0.977834378494722       0.997013194059290       1.333436068861899E-002
 -4.046830003943475E-003 -8.066075500147638E-003 -2.356176187448351E-003 -9.871457735244647E-003 -9.580645193299439E-003  3.360453774959909E-003  0.975089188428665       0.975393648387643       0.972819848310466       1.139743952201813E-002   1.00897173490681       0.970263725458326       0.967794996525000       7.218543902718822E-003  0.971156951450507       0.965305501131340     
  0.963065751571006       8.694935344617700E-003 -7.854322055829581E-003 -1.075803453560398E-002 -1.923767958303522E-003  1.994395312052763E-002  1.773704131300152E-002  0.995890887173432        1.00252878451754      -1.170865389227174E-002  0.982391869143129       0.979213430713096      -4.112962523924374E-004 -6.923316969216334E-003  1.534790749702057E-002   1.00144159608640     
 -1.035075965896607E-002 -1.269809638169776E-002  0.977178811798861       0.976700906141402       9.509464825397929E-003  1.012899899882375E-002  0.987087963907300        1.01044360519711       0.989986713920167       1.558826925224549E-002  2.462670190282335E-003  0.968947188016973       0.966452587193887       0.963815488435997       0.960753405596958       1.755804691579543E-002
  1.884782888445159E-004  0.970118999851568       1.370698765017018E-002  1.940538609690416E-002 -1.209250921614721E-002  0.992883808994178       0.994286861451755       0.997025889747060       7.164052580867127E-003 -6.479026654316083E-003   1.00565031235643        1.00561412821775       0.967283607922232      -5.370713830308920E-003 -4.877289526841120E-003  4.689871363690467E-003
  0.970333577402294       1.255404085066580E-002  0.998653508610271        1.00034559186086       2.234248235913891E-002  2.016613232679357E-002  1.781887150360814E-002 -3.542847188234713E-003  2.182479975278401E-002  0.974552772576871       0.971737335512589      -1.449266136644917E-002  0.987464346164077      -1.027166245973490E-002   1.01008086933358       1.565187668226375E-002
  9.106165869462416E-003  1.998179800456278E-002   1.00424995195687       0.967755510215805       0.965174525481614       0.995663116984341       0.962206827467534       2.475314786557961E-002  6.017568702971076E-003  2.266863709059887E-002   1.00824674521380       7.050062691857554E-003  4.341063848311561E-003  4.029290603212467E-003  1.796555180653434E-002  3.172675869008408E-003
 -8.500710315351004E-003  0.989962782635408       0.984977090113019       0.982963404958536       0.985376631756331       0.987413113841872       0.994586728123058       1.523874583809451E-002 -1.388319814042976E-003  0.965885468966547       2.059369134601527E-002  0.969032419324895       0.990448127604959       0.989463495879618       0.987109544778940       0.984900522427559     
  0.987793914650877       0.988731900092573      -1.216456464486226E-002 -3.116480355994598E-003  0.999847504608630       0.984097898923197       0.967976517773840       0.997527391909816       0.996308131377991       2.711962967182071E-002   1.00772990137175        1.00596153145882        1.00949337314045        1.01118731206162      -1.274605365185840E-002 -1.535602909654214E-002
 -8.141371916904545E-003  2.046276232951242E-002  1.793539057864405E-002  1.516901829594907E-002 -9.743523508464134E-003  0.990287165000754        1.00859454490047       6.037749853260170E-003  0.980103621758195      -6.817706211752336E-003  0.991959960505299       0.992667089197954       0.993824270556052       1.829849695879294E-003  0.971885849665397       1.310393762945231E-002
  1.268416470632247E-002  0.980566810141058       0.970269468520271       0.958894008184345       0.962760278724097       0.959884990498622        1.00375762412122       0.964401252079520       0.967374116498451       0.973251276002389       0.971575381142237       0.975232865132220       0.976147946177447       0.974536159329489       0.972906407741541       0.956911176392914     
  0.953641957985720      -4.911866446865170E-003 -1.250685680851578E-002   1.01168753699949        1.01289219925300       0.982006737974139       0.979441144868036       6.416098151000419E-003  5.823224868960048E-004  1.209856974135489E-003  9.002166988679439E-004 -6.122993008676293E-003   1.01097357919278        1.00666784898760      -1.006797180470760E-002  2.970697335588231E-002
  2.683423616275488E-002 -1.488014937909802E-002  9.782473913395580E-003 -1.519896552485800E-002 -1.813587409917966E-002  0.991613232457772       0.989711552510526      -1.235985905823213E-002 -1.509575435915396E-002  2.668470839273384E-002   1.01059362759834       1.244507592253679E-002  0.986097615520611       0.986686748313961        1.00266785611392        1.00866058141253     
   1.01152969391641       0.987310521051677       0.961578810045322       0.958640921108268       0.955420412982482       0.951899786483110      -2.535015355716299E-003  0.977531219557601       0.984533130193646       0.983948178733069       0.982237809735297        1.00879298456795       0.977116144328069      -1.197639226299398E-002  0.983707115101543       0.966695002744474     
  0.968612767742260       0.969963436665092       0.971135778314233        1.01068632912367        1.01126052186536      -8.435077511333371E-003 -1.780082003433305E-002  0.963170190538311       0.973547253555539       0.970630218157055       6.808086891647955E-003   1.00680784923585      -4.215794727215052E-003 -7.842645153891359E-003   1.01148590702146        1.00381812146373     
   1.00170271189095        1.01248203369147       2.332497658232236E-002  2.935358688727586E-002  2.664654348158692E-002 -9.222372485969469E-003  2.247334202646300E-002  2.426244590281137E-002  2.338696693425179E-002  0.977801725637601       0.976328491794992       3.802384921784587E-003  2.859249639459686E-003  0.998718260557481       9.561426109831711E-003   1.01356230439250     
  0.960642502446050       0.987308605632323       0.993000078702745       0.994852418309698       0.957316871554866      -1.174069063548208E-002 -1.500866436334363E-002  0.964204559858110       0.979839710488711      -1.494834082323596E-002  0.980951372702297       0.984164163142175       0.990528017563722        1.00609064156065       0.972642519045475       0.968819928783864     
  0.965761531844494       0.963481698668701       0.967444099041541        1.01293554886461      -7.362191064436603E-003 -1.087013483090768E-002  1.223447261171039E-002  2.493661755488850E-002  2.086145068717267E-002  1.806521202216984E-002  3.248531106848656E-002  3.002108639127189E-002  2.856114798268986E-002   1.00465890869988       1.508727014913588E-002 -1.652154792319695E-003
 -1.644954917179997E-003   1.01377438993425        1.01608322052739      -1.506093292354263E-002  0.954206392206220       0.951087771895231       3.227260744119465E-002  2.999887686626179E-002  2.775316406927313E-002 -1.241465995774474E-002   1.01344439675534        1.01713964006985       0.975073795328086       0.969639782639440      -5.301374363512848E-003  9.523962301836428E-003
  6.767274270955236E-003 -1.816743162051265E-002   1.01369795753580        1.01479763832490       2.470661560300975E-002  2.131229409902566E-002  0.965514589474378       0.967036115863532       0.968533060750858       0.968720368228671       0.997436855947660        1.00516573478229        1.00789782038313        1.00370659325884      -1.025058179344907E-002 -1.278562755140025E-002
 -1.495143672156868E-002  0.947900959594751      -1.065014892486782E-002 -1.405138134061945E-002  0.974978912335359       0.955696727502576        1.00865249313864        1.01149259975628       0.980749805216871      -1.394873892696380E-002  0.990860454031345      -1.758293888667089E-002 -2.085951322033897E-002  3.518338335299565E-002  3.300959791535957E-002  3.087849728865601E-002
  2.891076028244155E-002  0.972039807894510       0.974838080030006        1.00063033246482       0.999389164675294       2.421707202111811E-002   1.00682466913998       6.743603339908075E-004  6.610406086589344E-003  3.754616152115732E-003  0.966361695677760       0.968740866716076       0.977991173202510       2.447737918546872E-002  1.835573947764401E-002  1.570934437139860E-002
  0.999375370425239        1.00191525646443       0.998458474120982        1.00559392166896        1.01424682768111        1.01444915670657       1.278541399397081E-002   1.00317269865877       3.540947179213336E-002  3.249746314854193E-002  0.952641945682738       0.949381736955453        1.00500441063219       0.945809495731622       3.811086366048358E-002  3.588000673876437E-002
  3.376725332199382E-002   1.00865461016838       0.960450437785306       0.956960533623844       1.884820332161918E-002  0.962083817982806       0.984575060202642       0.976598205955430      -1.662427469556573E-002  0.965266731411982       2.121749674166087E-002  1.816488255569018E-002  0.963794470855541       0.965789734814747       5.343655494355525E-004 -6.690591034401477E-003
 -1.373527606747881E-002  9.799973049187231E-003  0.963563391210123       0.961365374567961       0.967686612154218      -1.741357971445062E-002  9.228190007172975E-003  0.954161290366836       1.496954024526893E-002  2.212782077290257E-002  2.553438904550052E-002 -1.233710492681266E-002 -1.526948414488508E-002 -1.370971112200591E-002 -1.704177446489694E-002 -1.736512981018816E-002
  0.954178596729860       0.958357679043667      -2.144103716045702E-002  4.114123714878784E-002  3.873778898053189E-002  3.639578091288975E-002  3.461212068380164E-002  6.765590758829632E-003   1.01203215734487        1.01660324172134        1.01855685339585        1.00938438606121        1.01629405763699       0.971430430337321       0.974825243133716       0.960158478480261     
 -1.826437003708772E-003  3.857521304796891E-002  3.578150203469582E-002  3.272587826705067E-002  0.951306081447528       0.947531861901483       2.462935787091930E-002  0.996368747591275       4.240871370878946E-003  3.914322435198277E-003 -1.788112733994492E-002 -1.570737206236096E-002 -1.758021848473931E-002  0.962144885217473       0.958244694252341       0.977691048780802     
  6.506873615314906E-003  4.376340571876555E-003  1.307962739118881E-002  1.193664882746605E-002  0.942978054260429       0.948343899565265      -1.812315745905249E-002 -1.802325341828967E-002 -1.738073140721548E-002 -2.117000560421222E-002  0.964463237312581       4.432938122679569E-002  4.187682483612640E-002  3.894536331782963E-002  1.948143439995204E-002  0.954001560453016     
  0.957409989352010       0.959575444769216       0.950476816263420       0.956152357348263       0.952606897650209       0.949007613694715       8.553401989357220E-003 -1.226030037208831E-002  0.997403388910286       0.973939676032788       0.972728033307996      -2.021781145606064E-002 -2.017206386637861E-002  0.970441084417012       1.607124057819340E-002  1.337177761217191E-003
  0.981108538300711       0.984150991641301       1.655350905063236E-002  2.147353544477972E-002  1.825253686442280E-002  1.486297855290477E-002  4.184463165074000E-002  3.917534432087128E-002  0.978444360611448       0.973255745603460       9.942250100061441E-003  6.642346802517979E-003  0.944908626319796       0.941424134897443       8.600285527064950E-004  1.154345148706400E-002
   1.01383130593351       0.960359756022811       0.956231262842147      -1.918305103203478E-002 -2.142512263529329E-002  0.937841208918042       0.934207545342128       2.306180604394944E-002  0.946954450187656       3.628987267257036E-002  3.307777451301739E-002  2.683950134145257E-002  4.764180584575575E-002  4.525168350768986E-002  4.280415348251681E-002  4.073794933649807E-002
  7.641092062628577E-005  0.987350978014789       0.990578308413187       0.954834205358296       3.645864539201427E-003 -2.031035287189465E-003   1.01384478564901       2.496268902773898E-002  4.515758425800801E-002  4.253106855195721E-002  3.999152434549486E-002  2.022623805099500E-002  7.727957599416562E-003  1.340570796717750E-002  0.943455738817061       0.939880535486561     
  0.942004643293426       0.987320508795104       0.993766021319458       0.993841672522145       0.945052763649975      -2.297742505333214E-003  0.958427277891789       0.951103442526872       0.947345777707218       0.988256152662219       0.991946503806659       0.937911206380054        1.01040372866792       0.990591934145979       0.934112459786943       0.956249817394376     
  0.954239952882799       0.952094081050068       0.971278329877017       0.945503579061500       0.957275166382551       1.006168781078524E-002  6.465158882945240E-003   1.01613665765737        1.01471172105282        1.01614405660043        1.01837956463478       7.395923402613886E-004 -1.489534818057059E-003  1.120314788097908E-002  4.854817770270935E-002  4.576395640932780E-002
  4.319809002139851E-002  4.170361417061514E-002  0.949893239804084       0.945777790593507       0.930107283988665       2.175044810407690E-002  1.839109785469325E-002  2.747090167957182E-002  0.989200193038672       0.977931097513744       0.981810430223394       0.985547347918349       0.974642815033867       0.974634360948298       5.105974844736459E-002  4.863155015530453E-002
  4.617276311820537E-002  4.380404034547436E-002  4.073185146132354E-002  0.953361568740163       0.955760654658266       1.486086564866642E-002  1.710338783301254E-002  0.961291451909621       0.992875130210572       0.963813962082047       0.959806563182759       0.966364584462086       0.939527756971401       0.997744738224985        1.00074379911213       0.993985317751757     
  0.942069910357492       0.938393311786762        1.00165511694881       0.948262939759973       1.376557162667148E-002   1.01732650676147       2.910341693601009E-002  3.064511752734787E-003  0.936142810784483       0.952208557290510        1.00009102719394        1.00282164020217        1.00595117918476       0.967040433420615       0.944382943556733       0.949396485249778     
  0.944854169835089       7.172978584443759E-003  5.209412972677577E-002  4.916198973470650E-002  4.594371918666861E-002 -8.816993565690276E-003 -1.192335476343358E-002 -1.533453846930040E-002 -5.077705043501681E-003 -7.439131392133551E-003 -3.103262563398105E-003  0.987190254143963       0.979082877155705       0.999084163845430       0.944166022596682       0.936120300389026     
  0.932102463206181       2.550505073392659E-002  2.945841259736959E-002  2.416376751401721E-002  0.996670592734938       0.998019556555888       0.990564724412117        1.01765730768626        1.01975029790281       0.990017512634637       0.995540015931875       0.996664358060997       0.993795907739968       0.983971812479420       0.962684440270389       1.020951520419910E-002
  6.383695412069391E-003  0.934362834638379       0.950298213894473       0.947963681602229       3.177297460665325E-002  3.068415147474322E-002  2.871491286858724E-002  0.941541291691514       0.946893210823028       0.943477776002791       5.460639528597227E-002  5.210144871762797E-002  4.950990975977370E-002  0.982886476225037       0.986442266210542       0.986942752524872     