 VARIABLES = "X" "Y" "RO" "U" "V" "P" "M"
 ZONE T="  0.000000000000000E+000 " N=        9944  E=       19548
 ZONETYPE=FETRIANGLE DATAPACKING=BLOCK
 VARLOCATION=([3-7]=CELLCENTERED)
  -19.9782054645671       -16.7460447536127       -13.5432470514743       -10.4462771124608       -7.39483127129757       -4.39431260318683       -1.43672854734527        1.47853524247441        4.40194279230921        7.38347804238703        10.4122197804982        13.5308676756442        16.7310607632789        20.0189460056259        20.0156650185539        20.0123451374732     
   20.0090067226427        20.0056742799471        20.0022854763303        19.9988742323503        19.9954939648514        19.9920871178897        19.9886881104951        19.9853470049941        19.9820070605281        19.9783478910574        16.7317203104092        13.4557822172063        10.1645634122701        6.87452312340184        3.53259687976399       0.170578499054329     
  -3.16443525887912       -6.48474521199279       -9.79114624567630       -13.0836966857758       -16.3754018560739       -20.0188035791356       -20.0155069002833       -20.0121812769038       -20.0088400757232       -20.0054989473046       -20.0021446450312       -19.9987763328347       -19.9953939522161       -19.9920253568386       -19.9886729196427       -19.9853365630757     
  -19.9819979716434       0.999663901378852       0.998146425770803       0.996633352304726       0.995130509045428       0.993583067452477       0.991974681944512       0.990300501978647       0.988565006978897       0.986768079193587       0.984907387809825       0.982968922636536       0.980961226849323       0.978868101986410       0.976702231729480       0.974459756510049     
  0.972133263443095       0.969720199352469       0.967219741445476       0.964629569506375       0.961950044099667       0.959176182412999       0.956300171087907       0.953310888175152       0.950198911842184       0.946992977917658       0.943671403215461       0.940201600604271       0.936625970152744       0.932932384612777       0.929099362454342       0.925091963115482     
  0.920940837373683       0.916640721962124       0.912177715518909       0.907542829135079       0.902729600576357       0.897731491371033       0.892535905030929       0.887130064010622       0.881506288616285       0.875656795535390       0.869582710142417       0.863276785030787       0.856731053636070       0.849935482196014       0.842881188649066       0.835559667374397     
  0.827964520162838       0.820087298997812       0.811919717238116       0.803453371250682       0.794679397513881       0.785590124426838       0.776176627614313       0.766314719739487       0.756093318240474       0.745500987575060       0.734527041415558       0.723164450890702       0.711400824592705       0.699223492812068       0.686625167576192       0.673594053776531     
  0.660116198356167       0.646184170459299       0.631784431733892       0.616900244242030       0.601520437694156       0.585624319738349       0.569199348702954       0.552229984053601       0.535305487554755       0.518343679101545       0.501312279350782       0.484211357225786       0.467040514839144       0.449149903698241       0.431855746395231       0.415156524614192     
  0.399050581506077       0.383521997886295       0.368486076022024       0.353924485353366       0.339833185603339       0.326221044617356       0.313073072676965       0.300390345212173       0.288173825225421       0.276405233208408       0.265059522153569       0.254089194431626       0.243481631434446       0.233224438409296       0.223310356463843       0.213731287313760     
  0.204475543610276       0.195531877236217       0.186895684766297       0.178550697251177       0.170487217783133       0.162688221414285       0.155146869556752       0.147856767274007       0.140811812117072       0.134005786806171       0.127431791197301       0.121084252696656       0.114957960387801       0.109047604529691       0.103348648829709       9.785671968046838E-002
  9.256763285407728E-002  8.747790784449934E-002  8.258381890937905E-002  7.788161233785308E-002  7.344947133682875E-002  6.918032602123085E-002  6.507585028114077E-002  6.113430217752207E-002  5.735581643481052E-002  5.371834182932620E-002  5.023353926950217E-002  4.689931688288752E-002  4.369792986654446E-002  4.060014812750098E-002  3.760284438421983E-002  3.468314075107167E-002
  3.184135974565509E-002  2.908255210645084E-002  2.640952944622925E-002  2.382622889412988E-002  2.133874844405855E-002  1.895470496567312E-002  1.679288441490043E-002  1.471124301884360E-002  1.272945975642207E-002  1.086642935265908E-002  9.146952626953033E-003  7.506084421136069E-003  5.907201752709187E-003  4.453104843208764E-003  3.134628867276956E-003  1.989382651528820E-003
  1.077076515260742E-003  4.655895197862598E-004  1.704388378995790E-004  1.120328737161114E-004  3.702137663617600E-004  9.862781112761868E-004  1.912200464382894E-003  3.059056863569582E-003  4.355864541748563E-003  5.748234688371174E-003  7.432120234903857E-003  9.204342122146741E-003  1.108016799288375E-002  1.297384500433558E-002  1.491482377421146E-002  1.695081345693236E-002
  1.913226568798610E-002  2.142569235550505E-002  2.384094452532171E-002  2.631864061712353E-002  2.886627633646955E-002  3.152773349511055E-002  3.434249327100259E-002  3.730806228097188E-002  4.041402345129386E-002  4.364842238336310E-002  4.700044551217266E-002  5.045826001602895E-002  5.401847230889658E-002  5.768094352759043E-002  6.143834427033294E-002  6.565060394442286E-002
  7.000849139495297E-002  7.450944729600840E-002  7.915035713052949E-002  8.386259126886268E-002  8.871528194206107E-002  9.373470290945862E-002  9.891878852619669E-002  0.104269653013063       0.109777592449021       0.115462057574711       0.121364051672051       0.127533313811759       0.133982886764509       0.140715992483836       0.147729181714161       0.155023714870277     
  0.162602724534922       0.170467264593769       0.178621322408593       0.187068411347760       0.195813011981257       0.205040353135448       0.214608777353752       0.224524047406899       0.234795249152422       0.245430673549306       0.256437474698365       0.267826027657169       0.279607106702305       0.291788241305357       0.304380261021390       0.317395498305322     
  0.330841454710468       0.344728054300370       0.359068720758809       0.373863746585940       0.389123785200162       0.404854922153038       0.421042650346778       0.437697292421782       0.454761422735790       0.472226762368064       0.489767236458049       0.507176141586443       0.524451792779436       0.541596623924521       0.558614395888718       0.575187320243870     
  0.591291925065248       0.606908635518149       0.622036474544874       0.636677608739600       0.650796247766652       0.664403844389410       0.677515716194330       0.690149789066112       0.702326361638335       0.714096741134476       0.725502687499645       0.736552224971613       0.747253617217420       0.757609026970621       0.767626824183713       0.777315785496145     
  0.786684670102003       0.795655587562775       0.804297524274202       0.812615274536125       0.820614702511897       0.828300430142301       0.835676769821989       0.842750939583391       0.849585444207010       0.856210145335416       0.862628124604538       0.868843158908662       0.874859108103639       0.880679954149492       0.886308978691636       0.891749283580091     
  0.897004308274553       0.902078394770446       0.906979263074877       0.911711448883187       0.916279444764194       0.920494099494232       0.924593041593576       0.928574387992602       0.932441019713004       0.936177999357829       0.939782320409925       0.943260338177140       0.946604299724452       0.949817816493290       0.952916226562503       0.955875447389105     
  0.958702132092207       0.961452676831872       0.964124031259958       0.966714359001214       0.969222409457974       0.971647606316182       0.973991127458705       0.976254019263886       0.978439599118718       0.980551773644355       0.982542366292182       0.984478555301227       0.986345672421342       0.988148468194271       0.989890910825461       0.991574298641200     
  0.993194186656404       0.994751847773668       0.996249797846766       0.997743924252172      -1.110616566833762E-003 -9.061076845701132E-004 -1.060251452077092E-003  0.995908800418275       0.997350395454926       0.995902624561521       0.997135930320949      -2.532946084410065E-003 -4.357373311037711E-004  0.995572758010753       0.996351790442658      -2.082581447292151E-003
  0.994518889603142      -2.418832499011877E-003  0.994027329873477       0.992369794259810      -7.074136818359137E-004  0.992799970921264       0.993782394362907      -2.458291390527431E-003 -4.003185731626809E-003  0.994879426635896       0.995040163512510       0.998774998680540      -1.467376016167504E-003  3.231698276797114E-004  0.991051489335299       0.989283071358341     
  0.987510751092538       0.991895842575826       0.998083075804058       0.993363500094076       0.991153429772024       7.011948680581224E-005 -2.118745260609078E-003 -4.098912040898337E-003  0.992784452758200       0.997331931421160        1.00042421022297       0.998061756895159        1.00110619902368      -3.385593600134854E-003  1.356473055480447E-003  0.996459877021866     
  0.996867683537075       0.999424453048208       0.989423539319057       0.990067705228049       0.988218251228005       0.986306374558659       0.990883502670396       0.992662048073360       1.163770486099862E-003 -8.136976043826732E-004  3.816579184034622E-003   1.00221195987284       0.990410322898800      -5.445446811143399E-003  2.630646825900404E-003  0.990904149901394     
  0.987538803648056       0.988930226786030       2.408585200106366E-003 -4.163466281408826E-003  0.991645958380044       0.999839700499052       0.999287657228751       4.112258537618701E-003  0.989074912295560      -2.617125166630297E-003 -3.835176489028250E-003   1.00312300572107        1.00118616078139       0.994793851772371       0.998927545212552        1.00100157314948     
  0.993688929890597       7.476315199297453E-003 -2.566281657726653E-003  0.999558023685396       0.998700949139038       5.763172817610946E-003  0.985572696116038       0.983586066656759       0.991815097449260       0.997940596630042       0.986827752999063      -5.917819909500017E-003  0.988234091751314       9.154522168755811E-003 -5.572302456293746E-004  6.381506180034261E-004
 -5.418666230391595E-003  0.984213620775007        1.00339694106277       0.987090202096401       0.984886416597407       0.997753783738408       0.995721578563118      -1.531151343137501E-003   1.00398974258034        1.00586830825207        1.00172905677167       0.984680972384795       0.982431781058663        1.00082214421643       0.994125875959333       0.986042716517739     
 -4.820495615799341E-003  5.755444802539941E-003  1.701943104266015E-003  7.528769150896271E-003 -7.176487697603402E-003 -1.769731528958472E-003 -1.376113108258408E-004  3.519577850757048E-004  2.102572291224599E-003  0.994676001660008        1.00256413306536       0.995546023831123       0.988217280718866       0.992500097020798       0.981836969691593       0.979680198447421     
  0.982666193791113       3.823004920918921E-003 -5.641608484561847E-003 -7.519393723203933E-003  0.977531231179430       0.989642199234435       5.412288312421672E-003  0.985939934244817       0.990846493716224       0.993639104037143        1.00032675633132       0.999551787772479       3.262868054223451E-003   1.00532819099051        1.00430060335021       0.996521376806285     
  0.998474326119112       6.302431169866001E-003  0.999966956052148        1.00226942050656       1.093801756261010E-002   1.00287034843807        1.00682323693091        1.00456226814491        1.00716282592408       0.990027309878671       0.993146978828762       0.988964806188031       1.569140837335878E-003  7.181760414208017E-003  0.989972467191349       0.985863683679091     
  0.983208651557523       8.942031466350434E-003 -6.136034190172389E-003 -3.945857801326470E-003 -2.579517178875323E-003 -3.865266011958006E-003  0.991308587450643       0.992425086003640       0.980546776431547       0.978352244492940       0.975972446670962       1.100875116733629E-002  0.991972517802072       0.995965740747398       0.994942178452663       0.997025306357885     
  5.020117196312001E-003  1.296060516578525E-002  0.987572831189711       0.987266063905956        1.00318874669828       0.989251839905378       9.066441107814687E-003  0.987291775775796      -4.181072863157679E-003 -8.066499949217173E-003  0.981340751704995       0.980036067468620       1.293207313297155E-002  0.981826917762426       0.977541556825487      -6.145563320889695E-003
  0.985325220452267      -7.567294857208229E-003  1.097422030680775E-002  0.994508886212263      -3.036521317122895E-003  3.641797154365706E-003  0.975256156456498       1.098665983886521E-002 -5.713318077382283E-004  9.298280749901217E-004  1.495775855114298E-002 -9.746716903453104E-004  6.940509769577920E-003  0.978656616583085      -6.360561372413565E-003 -9.071934533750428E-003
  8.967467188098679E-003   1.00553047317839        1.00842461424437       0.979439967337717       0.976987262635746       0.973873313395612       0.984525584729141       0.982382130391448       0.993671242105051      -1.609316772354498E-003  1.290636220133095E-002 -9.842565037809552E-003  0.976624533283626       0.974254982277473       1.504781249744101E-002  4.621365729512021E-003
  8.711088872664283E-003  1.102537223679896E-002  0.972896875633531       0.970506946405056      -8.292117358895103E-003 -1.042626818792801E-002  9.418716572945650E-005  1.316451996069650E-002  0.983664820303414       0.980833208196270       0.982729418582988       0.980097228801653       0.980885506343595       0.980438816809905        1.00884508224517        1.00556912773607     
 -5.937242685187798E-003  9.858217985874757E-004   1.00209291031233        1.00132892428773       0.984735854987655        1.00421183718814        1.00386062731833       0.971755325856181       1.725492270465667E-002  0.981772648111462       0.983166077208858       1.111432987281140E-002  0.998612397034463       0.989504820648719       0.969175151894540      -3.697627650260736E-003
 -5.179579703742076E-003  0.985554392265842       0.995961190488255       1.540653772527968E-002  0.979419301855425       2.670463447719265E-003  1.708216499305337E-002  1.491749371401773E-002  0.973505032418137        1.00782241240968       0.978603790318756        1.00131442537879        1.00024603157041       0.978265087051228       0.997533079903272       1.347184213804182E-002
 -4.374545308768068E-003 -8.332265618101868E-003 -2.716236932261630E-003 -1.006052621311876E-002 -9.712907547616327E-003  3.413138350734367E-003  0.975631858323346       0.975815911194919       0.973232765126430       1.152494473262261E-002   1.00947370559732       0.970809851528321       0.968342685192057       6.753956475704617E-003  0.971701752289851       0.965854703456382     
  0.963616143376574       8.802009190323295E-003 -7.925560423387611E-003 -1.084471769861164E-002 -1.924119373245358E-003  1.935319795242316E-002  1.716435699729804E-002  0.996412019812689        1.00304304392412      -1.188526038717165E-002  0.982924725063796       0.979748762516204      -8.042940460883197E-004 -7.231522846425618E-003  1.479298560574370E-002   1.00195773127945     
 -1.059749128760220E-002 -1.292631278369923E-002  0.977605591085702       0.977122336756421       9.015621945892421E-003  9.619539975070170E-003  0.987541931241538        1.01094632286305       0.990445608644992       1.573878802178394E-002  2.048711755274709E-003  0.969493207531286       0.967000015974184       0.964364431887852       0.961304337438706       1.772039422397841E-002
  2.185997002850599E-004  0.970522295133724       1.384832645507299E-002  1.957976457148761E-002 -1.224638151719682E-002  0.993348585640204       0.994749919130528       0.997493104266061       6.687235079858795E-003 -6.524223139707079E-003   1.00615995068948        1.00612536002661       0.967676315129274      -5.710265261503149E-003 -4.896830251687752E-003  4.243698438838006E-003
  0.970878027896790       1.268991839582543E-002  0.999172167926483        1.00086327001856       2.172865208828765E-002  1.956982148989289E-002  1.724037442840422E-002 -3.913835626919988E-003  2.201366395941374E-002  0.974969772518544       0.972144661538000      -1.467026121425832E-002  0.987913903389163      -1.054379644602568E-002   1.01057915736392       1.580427620785178E-002
  9.219332256819075E-003  2.015899825836813E-002   1.00476342081964       0.968301247267890       0.965721436021396       0.996123829679238       0.962755407845978       2.411866173179951E-002  6.100066743286904E-003  2.204988345469109E-002   1.00875458396525       6.560977294065384E-003  3.881864947091833E-003  3.556715992659492E-003  1.813058854442405E-002  3.234062932436128E-003
 -8.822664417800786E-003  0.990416446330252       0.985422370113169       0.983402071550125       0.985820086041575       0.987858580378578       0.995109128268676       1.467793451313486E-002 -1.793623205169283E-003  0.966274119178402       2.077369917993214E-002  0.969576608821741       0.990973878506096       0.989990040197213       0.987638017247679       0.985430693727878     
  0.988321747857587       0.989259093260186      -1.228304566129635E-002 -3.110291884368929E-003   1.00031847899839       0.984533917509043       0.968373648002161       0.998047326934528       0.996829279981282       2.646651649858403E-002   1.00821820848487        1.00644649542465        1.00998497494405        1.01168161099647      -1.300167637297323E-002 -1.559543865902615E-002
 -8.427192557739960E-003  1.986116773973865E-002  1.735160482140499E-002  1.460291924061189E-002 -1.003738522043660E-002  0.990735592919828        1.00910390202866       6.128531177724108E-003  0.980535613938333      -7.168336861081124E-003  0.992419627971355       0.993124016430037       0.994276086695312       1.402985166681050E-003  0.972428157978490       1.257282047291663E-002
  1.214687352322996E-002  0.980994343660666       0.970811766405397       0.959444542979298       0.963134740574251       0.960248086547636        1.00424352468102       0.964781610684347       0.967918175123192       0.973791336612108       0.972115842743540       0.975771992395861       0.976685556473737       0.975074505355502       0.973445390358822       0.957262269293101     
  0.953979702937294      -5.292829192180129E-003 -1.278569782450972E-002   1.01218768536847        1.01339404359326       0.982538934202584       0.979975424304643       6.514567810528179E-003  6.257633886129204E-004  7.681070748857186E-004  4.433459414531725E-004 -6.134976330960186E-003   1.01148022074928        1.00717928041133      -1.040234413296979E-002  2.903043158877600E-002
  2.618225282890628E-002 -1.502148259958624E-002  9.264303426899984E-003 -1.546460462457067E-002 -1.838886312054870E-002  0.992138105334846       0.990237929504244      -1.255866289027110E-002 -1.530528520401806E-002  2.689695378845178E-002   1.01108083982621       1.190211952920071E-002  0.986626877080618       0.987215421870076        1.00314205328353        1.00914448109078     
   1.01201257595856       0.987838381044287       0.961948537594934       0.958999075749482       0.955765890859531       0.952231169024019      -2.956708869389055E-003  0.977950540082697       0.985063253115217       0.984478774982023       0.982769365906733        1.00930334051458       0.977652639401369      -1.228322756386573E-002  0.984237499866204       0.967240374922780     
  0.969155003859048       0.970504127271639       0.971675193550924        1.01119094420895        1.01176847885735      -8.795544268696907E-003 -1.796321743932729E-002  0.963545062515776       0.973958330165087       0.971031800388991       6.307507584617976E-003   1.00728817795909      -4.204099795478889E-003 -7.879551107439594E-003   1.01199494174063        1.00429875743946     
   1.00217091007547        1.01297251935138       2.270100502948552E-002  2.957955871904199E-002  2.685607535336494E-002 -9.251525402782731E-003  2.266458405003960E-002  2.446392137976059E-002  2.358079369096691E-002  0.978218201775754       0.976865115569476       3.317325675930681E-003  2.932129787323748E-003  0.999182873737667       9.679181900633821E-003   1.01406632663307     
  0.961007751049479       0.987747482576783       0.993523908948798       0.995374880005116       0.957869535903522      -1.208470684070987E-002 -1.512729440622469E-002  0.964750618793657       0.980373079095359      -1.523374619826142E-002  0.981373915203499       0.984591873704211       0.990969389754466        1.00660333391286       0.973048668953792       0.969216912536605     
  0.966146274299837       0.963855404867367       0.967834172405394        1.01343185368797      -7.366808958449444E-003 -1.092296410087856E-002  1.168614269987870E-002  2.430115723982383E-002  2.025480873960961E-002  1.747597783748627E-002  3.178810773547409E-002  2.934078996974021E-002  2.789231485117317E-002   1.00513034193432       1.451541227472085E-002 -1.626336321222500E-003
 -1.607147789239695E-003   1.01426748831960        1.01657742121159      -1.536722845643340E-002  0.954760265940310       0.951642731750738       3.251121958312100E-002  3.022543431539244E-002  2.796738932528029E-002 -1.245925558844720E-002   1.01395029978686        1.01764251218228       0.975487161351519       0.970035050987230      -5.285583315452366E-003  8.998586215110710E-003
  6.870885908541231E-003 -1.838723541742078E-002   1.01418378767602        1.01527923369559       2.490786706286485E-002  2.149488241275344E-002  0.966058494162278       0.967578245390569       0.969073935326857       0.969260362951747       0.997894381081185        1.00564213137454        1.00837313590870        1.00417185421592      -1.062064428168187E-002 -1.311017648457993E-002
 -1.527985819461107E-002  0.948456995864149      -1.067296030932107E-002 -1.408793403328336E-002  0.975389573953251       0.956248827125831        1.00916375831743        1.01200239799324       0.981282022569230      -1.401578439347633E-002  0.991385942237468      -1.771290334854837E-002 -2.100780336008053E-002  3.543277791711148E-002  3.324782663025285E-002  3.110632557686281E-002
  2.912904443600433E-002  0.972440334156396       0.975244472725413        1.00109219581531       0.999843882407054       2.358589909952507E-002   1.00729230217508       2.053309898985297E-004  6.100029187692625E-003  3.257360529397402E-003  0.966743908669973       0.969129056414675       0.978403789145876       2.467486356412730E-002  1.852341509260197E-002  1.586350315372427E-002
  0.999894208910546        1.00243237797512       0.998978497613041        1.00605686026201        1.01475344941521        1.01495692217810       1.292344839255726E-002   1.00368820211512       3.469080798868431E-002  3.179998952652074E-002  0.953195151550630       0.949936091966560        1.00551946975265       0.946365074783967       3.837009235709399E-002  3.612793327920160E-002
  3.400516281092213E-002   1.00911806844738       0.960998770507625       0.957510899768249       1.901824720003570E-002  0.962629751457428       0.985104514099415       0.977133869067208      -1.673089186644392E-002  0.965642440317652       2.060429815322476E-002  1.756894675332909E-002  0.964338314166459       0.966331779008328       5.394084469563293E-005 -7.079791212910948E-003
 -1.409158118622020E-002  9.922070399390779E-003  0.963934864393031       0.961728369467129       0.968066989696933      -1.760606637322199E-002  8.697183580506173E-003  0.954713093254259       1.439052024971092E-002  2.231351480552062E-002  2.573660648387609E-002 -1.241326004491627E-002 -1.535737328352372E-002 -1.380916057689329E-002 -1.712124144335827E-002 -1.765330361577153E-002
  0.954728916711369       0.958905719446797      -2.167532284162008E-002  4.141037355343769E-002  3.899464526105514E-002  3.664269637998928E-002  3.485000321318259E-002  6.873652773538297E-003   1.01250938454833        1.01708737717010        1.01903737760912        1.00986479650443        1.01676991158776       0.971824086984618       0.975226224823771       0.960704231463768     
 -2.271824421099676E-003  3.783469049626198E-002  3.506155576438993E-002  3.202826994110970E-002  0.951858595290866       0.948085388305794       2.398920788992570E-002  0.996819734771552       4.330611871528760E-003  4.006303792533831E-003 -1.797598287979972E-002 -1.576550499402129E-002 -1.762994314815020E-002  0.962688667780834       0.958790247139097       0.978227943910706     
  5.989045891570430E-003  3.863483162979685E-003  1.322056238970244E-002  1.138237936757580E-002  0.943532902992811       0.948659157217103      -1.842915328407807E-002 -1.836166180437864E-002 -1.765546997416098E-002 -2.144142719479360E-002  0.965005149462992       4.460830969578844E-002  4.214436822108751E-002  3.919991317244705E-002  1.965406539494794E-002  0.954340945594752     
  0.957762700597263       0.959934934110234       0.950801529674733       0.956499164222856       0.952939711222661       0.949325863331471       8.017171335178703E-003 -1.228015933539566E-002  0.997848546027089       0.974477581621923       0.973265809672670      -2.030934765334868E-002 -2.028676925253544E-002  0.970825747910135       1.622724681832837E-002  1.412263659338474E-003
  0.981525789271063       0.984572377850158       1.671213647729926E-002  2.085263478315823E-002  1.764874515666943E-002  1.427534342329750E-002  4.108301899496158E-002  3.843252649584430E-002  0.978854202713142       0.973644141559022       1.006845692043567E-002  6.754615172339122E-003  0.945209773853846       0.941711172116954       9.395056170264950E-004  1.098136065725439E-002
   1.01434048881698       0.960903408252936       0.956776593012674      -1.925359724576844E-002 -2.148614372076011E-002  0.938113446642640       0.934464567885423       2.325105767797940E-002  0.947264428414043       3.556812886455506E-002  3.237955396910063E-002  2.704598817054434E-002  4.792962353292997E-002  4.552859006817964E-002  4.307061830149874E-002  4.099578367622062E-002
 -4.129986562245955E-004  0.987782457024597       0.991012606690360       0.955174547135198       3.740933326476269E-003 -1.975750849064102E-003   1.01431646814234       2.431659583755777E-002  4.437654431737057E-002  4.176758726457279E-002  3.924448170651371E-002  2.040178489622359E-002  7.183572518717563E-003  1.355010602978947E-002  0.943752083468308       0.940162894422175     
  0.942561637403614       0.987745290249090       0.994209705265051       0.994277900241138       0.945609612229531      -2.230808481758552E-003  0.958781605679023       0.951429632744722       0.947657470358989       0.988783249583759       0.992471231343725       0.938468989903220        1.01087372557962       0.991019552123018       0.934670850532836       0.956797431332996     
  0.954787192337593       0.952640982570510       0.971815953365855       0.945808110988170       0.957622355848707       1.019224804211226E-002  6.582360754653249E-003   1.01662564822996        1.01521008178262        1.01664442991474        1.01887574090772       8.242449474012026E-004 -1.409847712720514E-003  1.063166328379603E-002  4.774818824470570E-002  4.498355298267459E-002
  4.243241150625565E-002  4.094893496007074E-002  0.950444659995552       0.946330088684563       0.930666244625120       2.112221609412162E-002  1.777869140558950E-002  2.680888323533132E-002  0.989726640342097       0.978464865137038       0.982341398590078       0.986075957587495       0.975178882461943       0.975169375456114       5.135597183238146E-002  4.891678884175674E-002
  4.644792260465005E-002  4.407011616042648E-002  4.098435363594533E-002  0.953695023545077       0.956100500244645       1.426371469169745E-002  1.726516582578089E-002  0.961656087952090       0.993399389412731       0.964181487990376       0.960159985898526       0.966736163989056       0.940084202599948       0.998265574202119        1.00126304131667       0.994415449075391     
  0.942362300689743       0.938671044913841        1.00210628798963       0.948813275577476       1.391381513535660E-002   1.01779590626794       2.843081795287354E-002  3.162943002542157E-003  0.936410013126106       0.952757809558006        1.00053262162147        1.00328114640820        1.00640824990768       0.967580217375694       0.944934044607411       0.949716561359563     
  0.945157750553815       6.618535218450972E-003  5.127464874113793E-002  4.836277731269283E-002  4.516428147075927E-002 -9.210499935680773E-003 -1.230078725337687E-002 -1.570643270569309E-002 -5.498508182031453E-003 -7.859177997609568E-003 -3.554413546760441E-003  0.987608305802069       0.979615047802831       0.999604681648046       0.944466218566917       0.936677171932294     
  0.932659868647981       2.485314861942555E-002  2.878194349131422E-002  2.435623289028208E-002  0.997107571515176       0.998451825485422       0.990985738360327        1.01816195446462        1.02023443202621       0.990543424032669       0.996062363256281       0.997186508353983       0.994319788025136       0.984386973055587       0.963226158207207       1.034463346662988E-002
  6.505959086225420E-003  0.934624557441252       0.950846908742238       0.948512015911353       3.200191141005967E-002  3.090695990188312E-002  2.892647505082220E-002  0.942094456456634       0.947442876086475       0.944027684392682       5.491074400230405E-002  5.239490538519888E-002  4.979257933614897E-002  0.983416309727989       0.986970192410323       0.987470099847084     