 VARIABLES = "X" "Y" "RO" "U" "V" "P" "M"
 ZONE T="  0.000000000000000E+000 " N=        9944  E=       19548
 ZONETYPE=FETRIANGLE DATAPACKING=BLOCK
 VARLOCATION=([3-7]=CELLCENTERED)
  -19.9782054645671       -16.7460447536127       -13.5432470514743       -10.4462771124608       -7.39483127129757       -4.39431260318683       -1.43672854734527        1.47853524247441        4.40194279230921        7.38347804238703        10.4122197804982        13.5308676756442        16.7310607632789        20.0189460056259        20.0156650185539        20.0123451374732     
   20.0090067226427        20.0056742799471        20.0022854763303        19.9988742323503        19.9954939648514        19.9920871178897        19.9886881104951        19.9853470049941        19.9820070605281        19.9783478910574        16.7317203104092        13.4557822172063        10.1645634122701        6.87452312340184        3.53259687976399       0.170578499054329     
  -3.16443525887912       -6.48474521199279       -9.79114624567630       -13.0836966857758       -16.3754018560739       -20.0188035791356       -20.0155069002833       -20.0121812769038       -20.0088400757232       -20.0054989473046       -20.0021446450312       -19.9987763328347       -19.9953939522161       -19.9920253568386       -19.9886729196427       -19.9853365630757     
  -19.9819979716434       0.999670391740778       0.998152966049746       0.996639942675741       0.995137149470027       0.993589759710338       0.991981428371777       0.990307305084405       0.988571869123987       0.986775002738013       0.984914375180981       0.982975976724060       0.980968350220738       0.978875297728739       0.976709502438686       0.974467104848334     
  0.972140692247046       0.969727711447862       0.967227339569510       0.964637256340594       0.961957822159364       0.959184054209916       0.956308139201664       0.953318955333885       0.950207080830800       0.947001250319616       0.943679781043187       0.940210086577773       0.936634565339704       0.932941090141465       0.929108179748627       0.925100894207316     
  0.920949883007373       0.916649882644707       0.912186991733038       0.907552221183559       0.902739108507397       0.897741114977390       0.892545643982017       0.887139917836763       0.881516256590184       0.875666876678869       0.869592903073552       0.863287088148546       0.856741465144250       0.849946000146185       0.842891810930381       0.835570391721668     
  0.827975344147481       0.820098220080705       0.811930732794379       0.803464478603813       0.794690593979535       0.785601407347308       0.776187994425426       0.766326168964802       0.756104847715049       0.745512595445642       0.734538726217438       0.723176211610070       0.711412660789787       0.699235404701880       0.686637156067370       0.673606120558179     
  0.660128345950175       0.646196402197253       0.631796751780513       0.616912657568528       0.601532949957858       0.585636937213451       0.569212078046530       0.552242832084569       0.535318456584720       0.518356771255060       0.501325495999650       0.484224698527226       0.467053979515727       0.449163493268327       0.431869451272245       0.415170333883215     
  0.399064483164153       0.383535979161833       0.368500123864337       0.353938586186820       0.339847325429530       0.326235209170594       0.313087247648212       0.300404516371759       0.288187978589650       0.276419355134183       0.265073599357263       0.254103213851096       0.243495580335190       0.233238304409189       0.223324127599615       0.213744952066669     
  0.204489090881290       0.195545296346046       0.186908965556268       0.178563829894308       0.170500192859318       0.162701029727618       0.155159502301806       0.147869216038194       0.140824068879825       0.134017843925818       0.127443641375463       0.121095889002282       0.114969376257580       0.109058793752421       0.103359605564256       9.786743845452774E-002
  9.257810856515492E-002  8.748813578828780E-002  8.259379476726088E-002  7.789133217300200E-002  7.345893643038211E-002  6.918953238867462E-002  6.508479448719438E-002  6.114298115784042E-002  5.736422764735891E-002  5.372648160171389E-002  5.024140521059226E-002  4.690690694399385E-002  4.370524095473571E-002  4.060717473784144E-002  3.760958062471457E-002  3.468957816740471E-002
  3.184748929724056E-002  2.908836460059302E-002  2.641501523947847E-002  2.383137794487265E-002  2.134355053680075E-002  1.895914992342742E-002  1.679698078747097E-002  1.471497700572245E-002  1.273281905739930E-002  1.086940363495754E-002  9.149535821898971E-003  7.508252755624737E-003  5.908912768083471E-003  4.454334698416405E-003  3.135339077844261E-003  1.989530109456307E-003
  1.076623292980287E-003  4.645285560025236E-004  1.688266381931394E-004  1.098694197406991E-004  3.673526545244075E-004  9.827426548424314E-004  1.908030316335827E-003  3.054309608142776E-003  4.350595731904247E-003  5.742494594304927E-003  7.425888394711757E-003  9.197656017919914E-003  1.107305182089999E-002  1.296633463211018E-002  1.490694201330297E-002  1.694257079211733E-002
  1.912366310321926E-002  2.141673625083609E-002  2.383163933692289E-002  2.630899840239916E-002  2.885630675510754E-002  3.151743997370501E-002  3.433187472451739E-002  3.729711849632204E-002  4.040275576184217E-002  4.363683355661023E-002  4.698853940136184E-002  5.044604146894852E-002  5.400594628979997E-002  5.766811483830676E-002  6.142521813863213E-002  6.563715870683699E-002
  6.999473058120775E-002  7.449537475088748E-002  7.913597702215057E-002  8.384791212776675E-002  8.870030775756738E-002  9.371943631763888E-002  9.890323261438680E-002  0.104253811073230       0.109761468583104       0.115445655209404       0.121347372735665       0.127516358684772       0.133965656200517       0.140698488083103       0.147711406181591       0.155005671805264     
  0.162584418368505       0.170448700674123       0.178602506921054       0.187049351362910       0.195793715465435       0.205020824623565       0.214589026668809       0.224504085601108       0.234775088524980       0.245410327772507       0.256416958950317       0.267805358699214       0.279586303029582       0.291767323344964       0.304359251269812       0.317374421522817     
  0.330820338160181       0.344706927953430       0.359047617546076       0.373842702621668       0.389102840040203       0.404834119037751       0.421022036182759       0.437676918193520       0.454741342516461       0.472207033838672       0.489747913051749       0.507157271847834       0.524433424039668       0.541578802263799       0.558597166033006       0.575170712883260     
  0.591275965509393       0.606893343623449       0.622021865435606       0.636663693049423       0.650783029880975       0.664391324827608       0.677503892139243       0.690138654863647       0.702315909300124       0.714086962499721       0.725493574150825       0.736543766599528       0.747245801863964       0.757601840878522       0.767620252379241       0.777309812019413     
  0.786679278197316       0.795650754450656       0.804293230457496       0.812611499979114       0.820611426848684       0.828297632728169       0.835674429831812       0.842749036298235       0.849583960491974       0.856209065646092       0.862627433388146       0.868842840701863       0.874859147590420       0.880680336219251       0.886309688447373       0.891750306376627     
  0.897005629784229       0.902080001076116       0.906981140892092       0.911713585409240       0.916281827702235       0.920496706833100       0.924595864429685       0.928577417555539       0.932444247631628       0.936181416769100       0.939785918595805       0.943264109033928       0.946608235055481       0.949821908564441       0.952920468647689       0.955879831843485     
  0.958706651824685       0.961457327639752       0.964128808953006       0.966719259448408       0.969227428601506       0.971652740187845       0.973996372246419       0.976259371289022       0.978445054928100       0.980557330024420       0.982548017764334       0.984484299614307       0.986351506640296       0.988154389619411       0.989896916949283       0.991580387013318     
  0.993200354594862       0.994758092637028       0.996256117091876       0.997750318104772      -1.112496850156030E-003 -9.074629144259673E-004 -1.062691111107149E-003  0.995915433092332       0.997356995184772       0.995909288338025       0.997142241037657      -2.535065393856807E-003 -4.365430562599383E-004  0.995579004780617       0.996358030602115      -2.083707221576211E-003
  0.994525567457003      -2.420470591915287E-003  0.994033514208685       0.992375900467848      -7.105141351126200E-004  0.992806707660546       0.993789125832446      -2.460943657951740E-003 -4.005084341808971E-003  0.994885621655823       0.995046316481725       0.998781364606318      -1.467957261379212E-003  3.229378243630971E-004  0.991058281901380       0.989289919435835     
  0.987517655730793       0.991902628022698       0.998089372923843       0.993369628947762       0.991159454713077       6.632148309642738E-005 -2.122172288926673E-003 -4.101212544654002E-003  0.992791234852043       0.997338155140948        1.00043060688259       0.998068374645676        1.00111266252066      -3.386501240616542E-003  1.356810921313028E-003  0.996466005860874     
  0.996874364925107       0.999430997091961       0.989429509350339       0.990074541122439       0.988225138379179       0.986313315560838       0.990889543853830       0.992668088773640       1.159395042970823E-003 -8.177399338988689E-004  3.811161147109529E-003   1.00221835638884       0.990416261921695      -5.447531266010051E-003  2.631532937789991E-003  0.990910978991879     
  0.987544679185358       0.988936139458611       2.403674507512776E-003 -4.166301438503576E-003  0.991652785064094       0.999846290670912       0.999293935695522       4.113668564622116E-003  0.989081783900106      -2.617490666274138E-003 -3.836607305186712E-003   1.00312944913982        1.00119248903942       0.994800583799552       0.998934181745564        1.00100817169705     
  0.993695709959111       7.478671994961328E-003 -2.570118312016162E-003  0.999564358129929       0.998707145698751       5.765084446232342E-003  0.985578478746979       0.983591755760054       0.991821049125637       0.997946701157836       0.986833574246671      -5.920268160019605E-003  0.988239944859640       9.157231064920857E-003 -5.572535469278753E-004  6.386811799985123E-004
 -5.419884082114600E-003  0.984220628655720        1.00340328487387       0.987097128278333       0.984893413332833       0.997760482010066       0.995728315412943      -1.530972148602656E-003   1.00399613717979        1.00587466572124        1.00173558780303       0.984686701045548       0.982437413613216        1.00082839506526       0.994131917492173       0.986048484717240     
 -4.821180711798746E-003  5.757588187083306E-003  1.696863349044714E-003  7.531277109588724E-003 -7.177477066004704E-003 -1.773946026928352E-003 -1.368909981105656E-004  3.474012964890594E-004  2.103646870257448E-003  0.994682780511084        1.00257042171016       0.995552056206655       0.988224186051625       0.992506922697348       0.981844068358548       0.979687365699951     
  0.982673272992557       3.824618648637452E-003 -5.643337357576341E-003 -7.521469023517240E-003  0.977538470688093       0.989648070895610       5.406381158962741E-003  0.985946883383041       0.990852371835618       0.993645931755490        1.00033292137815       0.999557864316225       3.257280386431791E-003   1.00533461765536        1.00430709760078       0.996528120842506     
  0.998481048562268       6.304884354024369E-003  0.999973607691255        1.00227602947651       1.094111451014818E-002   1.00287656824412        1.00682970640753        1.00456855458397        1.00716910593257       0.990034189387138       0.993152932474906       0.988970633712468       1.570406166196385E-003  7.175373093334504E-003  0.989979327509287       0.985870663647260     
  0.983215724267849       8.944857730804327E-003 -6.139020657476265E-003 -3.949748230453075E-003 -2.579141192591697E-003 -3.865416755650610E-003  0.991315466976106       0.992431966439745       0.980553915225243       0.978359448115861       0.975979727691591       1.100149761902980E-002  0.991978393197379       0.995972520132520       0.994949008902604       0.997031320191681     
  5.014034746172681E-003  1.295298992481301E-002  0.987578635484768       0.987271827014004        1.00319530906812       0.989258763848235       9.059600825343765E-003  0.987298736465359      -4.184526149487304E-003 -8.069120210588124E-003  0.981347872820721       0.980041588197055       1.293556764515915E-002  0.981832534187503       0.977546955691830      -6.149054795930319E-003
  0.985330932193276      -7.568815809353587E-003  1.097747673151449E-002  0.994514831237734      -3.040912526776249E-003  3.643625910791270E-003  0.975261453277503       1.097926839541218E-002 -5.760668243988198E-004  9.245714603185770E-004  1.494980012460302E-002 -9.737683013324857E-004  6.933949297034312E-003  0.978662047009041      -6.361012504528973E-003 -9.072662500711901E-003
  8.960458641199213E-003   1.00553701086515        1.00843112416974       0.979447134472692       0.976994503629704       0.973880682631746       0.984532626802795       0.982389232904761       0.993678125861420      -1.614233486794148E-003  1.289866718674925E-002 -9.844401085192236E-003  0.976629882247994       0.974260224046304       1.505167857362912E-002  4.615101982588254E-003
  8.714088331334595E-003  1.101787186084463E-002  0.972902062158593       0.970512020804565      -8.295229228795315E-003 -1.042903285355657E-002  8.875385811292063E-005  1.316816921729468E-002  0.983670487040509       0.980838730883528       0.982735002067957       0.980102686315762       0.980892641225563       0.980445974683999        1.00885142053762        1.00557534799478     
 -5.941229551868419E-003  9.872797290567279E-004   1.00209904237516        1.00133496939192       0.984741483568404        1.00421841789414        1.00386724546937       0.971760454873398       1.725913729319491E-002  0.981778152337824       0.983171615421708       1.111776616622678E-002  0.998618386281753       0.989510632295194       0.969180171627776      -3.697060141029238E-003
 -5.179516623494648E-003  0.985561413184419       0.995967117493724       1.541053226924277E-002  0.979424715368352       2.664697204528010E-003  1.707384944076593E-002  1.490945746797388E-002  0.973512407673474        1.00782881838817       0.978610986908445        1.00132108904438        1.00025275961789       0.978270486677513       0.997539861232173       1.347564415158774E-002
 -4.379118667106614E-003 -8.335833012160640E-003 -2.721323717964346E-003 -1.006281246417068E-002 -9.714218408543951E-003  3.415208904853455E-003  0.975639157192890       0.975821207619056       0.973237948042057       1.152856770817966E-002   1.00948015106925       0.970817325298186       0.968350237901052       6.747214451010931E-003  0.971709200161825       0.965862338247245     
  0.963623844525090       8.805198771893816E-003 -7.925772884099633E-003 -1.084516938879100E-002 -1.923036349878383E-003  1.934452169805412E-002  1.715595775350005E-002  0.996418852671671        1.00304972256386      -1.188731559215574E-002  0.982931819592199       0.979755963566115      -8.098996293842703E-004 -7.235764151800438E-003  1.478486018560858E-002   1.00196446802149     
 -1.060072552872320E-002 -1.292922329715986E-002  0.977610947225956       0.977127631434521       9.008429411469912E-003  9.612113754100664E-003  0.987547641670790        1.01095279537274       0.990451388814741       1.574288275335495E-002  2.042764784937749E-003  0.969500717945843       0.967007600551320       0.964372095258592       0.961312107887098       1.772471875620629E-002
  2.202930412824886E-004  0.970527362090095       1.385224420958165E-002  1.958432482904289E-002 -1.224803714660521E-002  0.993354446751190       0.994755763578874       0.997499009187297       6.680313128286892E-003 -6.523952062116607E-003   1.00616652608680        1.00613199145707       0.967681255637119      -5.715009189054904E-003 -4.896070620949277E-003  4.237250935873208E-003
  0.970885500624391       1.269376718093606E-002  0.999178951735042        1.00087005902797       2.171962577360053E-002  1.956106283056042E-002  1.723188937603670E-002 -3.919078843583916E-003  2.201856863941005E-002  0.974975008635912       0.972149779999668      -1.467230219081064E-002  0.987919562717432      -1.054744172282376E-002   1.01058554334752       1.580845257790774E-002
  9.222703138026516E-003  2.016366887751331E-002   1.00477011127289       0.968308789376399       0.965729043016661       0.996129649873230       0.962763114274695       2.410932164911707E-002  6.102743949107687E-003  2.204078302633171E-002   1.00876115393351       6.553875027433152E-003  3.875225879994197E-003  3.549878828637965E-003  1.813501663579824E-002  3.236371048043083E-003
 -8.827110255461932E-003  0.990422163857023       0.985427970762951       0.983407588978826       0.985825666973683       0.987864191100635       0.995116014805889       1.466972292403529E-002 -1.799407788536947E-003  0.966279009269635       2.077847771074699E-002  0.969584116807023       0.990980813798493       0.989996968696771       0.987644991304276       0.985437741196094     
  0.988328734243333       0.989266090792738      -1.228406280563895E-002 -3.109027161791587E-003   1.00032444034175       0.984539406405742       0.968378636319392       0.998054161039602       0.996836167954434       2.645689284421198E-002   1.00822442678650        1.00645266007178        1.00999125001093        1.01168793721802      -1.300503525081042E-002 -1.559851211961168E-002
 -8.431071281136866E-003  1.985232990681846E-002  1.734304108329686E-002  1.459462958568324E-002 -1.004138059474773E-002  0.990741247236400        1.00911051989436       6.131436424586153E-003  0.980541043071087      -7.173240774759623E-003  0.992425424365349       0.993129781198263       0.994281792075990       1.396849499232684E-003  0.972435582542759       1.256505761823491E-002
  1.213902202481876E-002  0.980999721867776       0.970819236220821       0.959452378612903       0.963139465046970       0.960252678893973        1.00424969364756       0.964786405097483       0.967925718166043       0.973798715106436       0.972123279747436       0.975779284404311       0.976692838919854       0.975081853780085       0.973452806638509       0.957266722486995     
  0.953984001899083      -5.298214304646102E-003 -1.278943270371822E-002   1.01219411485985        1.01340051441081       0.982546058698364       0.979982635413194       6.517689844729145E-003  6.277562614762746E-004  7.617510136046931E-004  4.367638793640482E-004 -6.134027653776137E-003   1.01148678987013        1.00718593865884      -1.040697282369505E-002  2.902045009840879E-002
  2.617264471866041E-002 -1.502287862097417E-002  9.256752041668141E-003 -1.546810768438562E-002 -1.839214029290433E-002  0.992145047525624       0.990244937045215      -1.256108750827443E-002 -1.530786242462013E-002  2.690243739770492E-002   1.01108705458047       1.189418625232606E-002  0.986633928388604       0.987222480812865        1.00314806496158        1.00915064128416     
   1.01201873175042       0.987845459395920       0.961953207025844       0.959003609592910       0.955770276462597       0.952235389909495      -2.962735200662546E-003  0.977955812822038       0.985070342792403       0.984485864568424       0.982776498348154        1.00930999259357       0.977659912817175      -1.228741115299838E-002  0.984244630920784       0.967247936895784     
  0.969162517356769       0.970511615796015       0.971682661743921        1.01119746042885        1.01177508722612      -8.800589983391997E-003 -1.796495646958638E-002  0.963549792445190       0.973963497217199       0.971036851632550       6.300234994882531E-003   1.00729428322198      -4.202687549619733E-003 -7.879081221504564E-003   1.01200158829969        1.00430485704132     
   1.00217684141204        1.01297879096378       2.269182510839611E-002  2.958539719785728E-002  2.686155217303413E-002 -9.250868524777805E-003  2.266958786675271E-002  2.446913433152132E-002  2.358589717557352E-002  0.978223442241059       0.976872437378965       3.310301455055867E-003  2.934730875100645E-003  0.999188751340057       9.682708223108842E-003   1.01407285172593     
  0.961012367072520       0.987753013446537       0.993530858093454       0.995381840198819       0.957877440662534      -1.208947871283653E-002 -1.512827815914999E-002  0.964758248434576       0.980380302654531      -1.523756889552840E-002  0.981379234479819       0.984597261768484       0.990974957945986        1.00661002867946       0.973053777750044       0.969221906218076     
  0.966151121499816       0.963860120413379       0.967839084454462        1.01343822161131      -7.365678490263363E-003 -1.092275641318917E-002  1.167813032758112E-002  2.429180215149452E-002  2.024589432098360E-002  1.746733180992682E-002  3.177780949610898E-002  2.933074833867518E-002  2.788244423395070E-002   1.00513632256372       1.450703590140584E-002 -1.624679156379409E-003
 -1.605210731213842E-003   1.01427380626117        1.01658376858026      -1.537138632728260E-002  0.954768271440941       0.951650835687012       3.251739454782900E-002  3.023135229770233E-002  2.797305068487433E-002 -1.245885761325151E-002   1.01395687065788        1.01764904727262       0.975492358757069       0.970040026952906      -5.284052999294007E-003  8.990929186861058E-003
  6.874159200999452E-003 -1.838995926670977E-002   1.01418999479085        1.01528538390134       2.491311047133857E-002  2.149977016274893E-002  0.966066087253599       0.967585801903197       0.969081462497182       0.969267899891684       0.997900166343739        1.00564817886203        1.00837917632826        1.00417775262084      -1.062583038041065E-002 -1.311463619994311E-002
 -1.528437013424698E-002  0.948465204929599      -1.067214170367839E-002 -1.408734850659219E-002  0.975394739929032       0.956256774303636        1.00917044798951        1.01200907719799       0.981289266272613      -1.401580938317365E-002  0.991392968378621      -1.771406881671336E-002 -2.100925738755521E-002  3.543924611626167E-002  3.325405242817406E-002  3.111233116422222E-002
  2.913485386546069E-002  0.972445375473055       0.975249587957395        1.00109804349016       0.999849636064683       2.357660790487686E-002   1.00729823802674       1.985649900603414E-004  6.092609852211979E-003  3.250150877701291E-003  0.966748726176749       0.969133946529420       0.978408984008610       2.468011042667544E-002  1.852795052973445E-002  1.586777718045852E-002
  0.999901044006021        1.00243917370466       0.998985390351436        1.00606273235741        1.01476005057275        1.01496356587192       1.292741811857385E-002   1.00369494962938       3.468017924206934E-002  3.178968250512977E-002  0.953203186949983       0.949944228895708        1.00552623509093       0.946373323530322       3.837683455971811E-002  3.613442160802979E-002
  3.401142983709385E-002   1.00912395365148       0.961006539866285       0.957518794269205       1.902289285673803E-002  0.962637455225920       0.985111680550617       0.977141220974345      -1.673163976227373E-002  0.965647178197492       2.059528267255998E-002  1.756019782680494E-002  0.964345963552878       0.966339378072466       4.700214532359353E-005 -7.085291597798299E-003
 -1.409653829464315E-002  9.925742571315194E-003  0.963939552025510       0.961732953323490       0.968071783372704      -1.760833331308193E-002  8.689443219095726E-003  0.954721074964326       1.438203411790390E-002  2.231853264307431E-002  2.574202397519786E-002 -1.241348405780918E-002 -1.535778187968688E-002 -1.380980490395127E-002 -1.712147084641959E-002 -1.765716001664648E-002
  0.954736883753070       0.958913546993305      -2.167825576829236E-002  4.141739960085412E-002  3.900138386669301E-002  3.664919992516938E-002  3.485632262933427E-002  6.877064921752943E-003   1.01251546389553        1.01709357045472        1.01904352569587        1.00987091066539        1.01677598573810       0.971829044478143       0.975231274278108       0.960711996647602     
 -2.278217777607013E-003  3.782372332226599E-002  3.505090066518037E-002  3.201795472958421E-002  0.951866655215048       0.948093559932482       2.397977631776011E-002  0.996825435408852       4.333594082481342E-003  4.009368704020892E-003 -1.797649886081231E-002 -1.576533228634851E-002 -1.762957725418639E-002  0.962696378843313       0.958798077843370       0.978235166078947     
  5.981513501439779E-003  3.856033221361641E-003  1.322465272921014E-002  1.137427757795061E-002  0.943541227485189       0.948663189569236      -1.843329087331176E-002 -1.836631314014214E-002 -1.765910871343894E-002 -2.144498196599107E-002  0.965012812005407       4.461562609831938E-002  4.215141782157010E-002  3.920666100771020E-002  1.965882982308917E-002  0.954345256021717     
  0.957767168416367       0.959939479987406       0.950805666752850       0.956503558994849       0.952943939209019       0.949329917664006       8.009352576035156E-003 -1.227924938872311E-002  0.997854174353256       0.974484988990518       0.973273250222072      -2.030977659682400E-002 -2.028762965130721E-002  0.970830593570083       1.623162367083375E-002  1.414971632537750E-003
  0.981531044479397       0.984577688093633       1.671663134328648E-002  2.084349928406997E-002  1.763987412819961E-002  1.426672370999311E-002  4.107172338698968E-002  3.842151574137476E-002  0.978859364282040       0.973649033038359       1.007226852951888E-002  6.758163997555451E-003  0.945213640027466       0.941714870650415       9.423479465093599E-004  1.097313914255738E-002
   1.01434718349326       0.960911187268560       0.956784489112454      -1.925362960997452E-002 -2.148596133728664E-002  0.938116967691593       0.934467904800444       2.325621766189314E-002  0.947268390923140       3.555743897070427E-002  3.236922365547405E-002  2.705156211880571E-002  4.793721283384984E-002  4.553592093998453E-002  4.307770772464650E-002  4.100267942838118E-002
 -4.200734156497559E-004  0.987787897011739       0.991018087182155       0.955178860557291       3.744106264256889E-003 -1.973406747427281E-003   1.01432247775012       2.430706995564449E-002  4.436494416750698E-002  4.175625325681347E-002  3.923339744055562E-002  2.040667747229710E-002  7.175629694253969E-003  1.355432870960757E-002  0.943755883478191       0.940166526455600     
  0.942570019880094       0.987750646975204       0.994215309000768       0.994283410058533       0.945617905266140      -2.228187348845831E-003  0.958786087432295       0.951433776136612       0.947661439997651       0.988790357313987       0.992478285182810       0.938477502585015        1.01087970249390       0.991024948746207       0.934679472581464       0.956805321305311     
  0.954795145559817       0.952648992827394       0.971823443921166       0.945812001131043       0.957626747523900       1.019620782688922E-002  6.586069501062053E-003   1.01663191199069        1.01521649652836        1.01665089605250        1.01888214101318       8.272259963145298E-004 -1.406918197262023E-003  1.062329651116670E-002  4.773628888137429E-002  4.497195228921277E-002
  4.242103615272049E-002  4.093772153152036E-002  0.950452753507457       0.946338294388543       0.930674984553161       2.111296487336225E-002  1.776968506224522E-002  2.679911340268247E-002  0.989733775910066       0.978472205616930       0.982348654600073       0.986083147927425       0.975186294461294       0.975176805716373       5.136382689858390E-002  4.892437586573796E-002
  4.645526863829203E-002  4.407724891890338E-002  4.099117389990829E-002  0.953699248643155       0.956104797431163       1.425494602438563E-002  1.726979221764492E-002  0.961660693775952       0.993406473304985       0.964186123813768       0.960164449024514       0.966740847288384       0.940092651859029       0.998272515292005        1.00126994251295       0.994420881742330     
  0.942366044409722       0.938674609953788        1.00211200069193       0.948821402393808       1.391818182840858E-002   1.01780189493821       2.842088110024185E-002  3.166229569020104E-003  0.936413461655285       0.952765828593392        1.00053820873865        1.00328696875034        1.00641404696236       0.967587829499600       0.944942268172443       0.949720624359760     
  0.945161613844638       6.610437324058856E-003  5.126243894663640E-002  4.835087750539260E-002  4.515268566877584E-002 -9.216056942666952E-003 -1.230608214618102E-002 -1.571162542847537E-002 -5.504506668144241E-003 -7.865153590850035E-003 -3.560889299559856E-003  0.987613577721570       0.979622383365838       0.999611642644652       0.944470050783219       0.936685706833934     
  0.932668516681318       2.484352838050204E-002  2.877193862134722E-002  2.436153274919782E-002  0.997113094620630       0.998457290173647       0.990991051179705        1.01816854504379        1.02024063907543       0.990550586173074       0.996069364185772       0.997193544912894       0.994326905238176       0.984392205580618       0.963233889297159       1.034875153552367E-002
  6.509838883492258E-003  0.934627925156233       0.950854976643803       0.948520131815666       3.200798060712977E-002  3.091292362423143E-002  2.893225012183396E-002  0.942102787920752       0.947451025696577       0.944035923840348       5.491886461598956E-002  5.240275272980671E-002  4.980015652295961E-002  0.983423573378714       0.986977403872869       0.987477331911973     