 VARIABLES = "X" "Y" "RO" "U" "V" "P" "M"
 ZONE T="  0.000000000000000E+000 " N=        9944  E=       19548
 ZONETYPE=FETRIANGLE DATAPACKING=BLOCK
 VARLOCATION=([3-7]=CELLCENTERED)
  -19.9782054645671       -16.7460447536127       -13.5432470514743       -10.4462771124608       -7.39483127129757       -4.39431260318683       -1.43672854734527        1.47853524247441        4.40194279230921        7.38347804238703        10.4122197804982        13.5308676756442        16.7310607632789        20.0189460056259        20.0156650185539        20.0123451374732     
   20.0090067226427        20.0056742799471        20.0022854763303        19.9988742323503        19.9954939648514        19.9920871178897        19.9886881104951        19.9853470049941        19.9820070605281        19.9783478910574        16.7317203104092        13.4557822172063        10.1645634122701        6.87452312340184        3.53259687976399       0.170578499054329     
  -3.16443525887912       -6.48474521199279       -9.79114624567630       -13.0836966857758       -16.3754018560739       -20.0188035791356       -20.0155069002833       -20.0121812769038       -20.0088400757232       -20.0054989473046       -20.0021446450312       -19.9987763328347       -19.9953939522161       -19.9920253568386       -19.9886729196427       -19.9853365630757     
  -19.9819979716434       0.999367950650606       0.997848704487616       0.996333939093111       0.994829486679131       0.993280460965775       0.991670505443315       0.989994771932671       0.988257750869914       0.986459330591838       0.984597184304294       0.982657297518649       0.980648226165287       0.978553767060824       0.976386617863391       0.974142921180980     
  0.971815264453989       0.969401097315112       0.966899599897785       0.964308453490147       0.961628020353456       0.958853316801706       0.955976527605818       0.952986528247319       0.949873895020327       0.946667368559895       0.943345259530745       0.939874974876507       0.936298919237338       0.932604961688619       0.928771617528667       0.924763944089337     
  0.920612595858450       0.916312311346850       0.911849192437450       0.907214255832102       0.902401047175725       0.897403038214500       0.892207645424160       0.886802107223022       0.881178762509376       0.875329849158497       0.869256514890359       0.862951537071264       0.856406975466164       0.849612824059574       0.842560228839429       0.835240711903777     
  0.827647901072354       0.819773373032604       0.811608863235562       0.803145986869629       0.794375895417871       0.785290927044438       0.775882162341953       0.766025475476286       0.755809728957167       0.745223473984487       0.734256002542107       0.722900253212991       0.711143796062256       0.698973913462921       0.686383256228278       0.673359960557315     
  0.659889995602374       0.645965838667075       0.631573853338665       0.616697195894961       0.601324578998826       0.585435190633838       0.569016360346241       0.552052417431933       0.535132353599012       0.518173985498353       0.501145020799380       0.484045520728798       0.466875094071217       0.448983872572944       0.431688160518184       0.414986592423726     
  0.398877658136700       0.383345572876463       0.368305741944381       0.353739937749317       0.339644216804753       0.326027538782156       0.312874988629894       0.300187712405013       0.287966734907142       0.276193822793905       0.264843964750135       0.253869684014969       0.243258390214579       0.232997712139934       0.223080411908260       0.213498408013556     
  0.204240025390041       0.195294025555990       0.186655813835377       0.178309125081560       0.170244266248032       0.162444213985533       0.154902132159208       0.147611627137329       0.140566596730257       0.133760823004259       0.127187404503636       0.120840766669942       0.114715695972105       0.108806879550367       0.103109777316793       9.762001128965718E-002
  9.233339228796232E-002  8.724643396248373E-002  8.235540422805046E-002  7.765654248982434E-002  7.322795493821398E-002  6.896263747032121E-002  6.486225508220737E-002  6.092505868949315E-002  5.715117256923577E-002  5.351856420585219E-002  5.003887108187326E-002  4.670999309261486E-002  4.351420494089692E-002  4.042232808231158E-002  3.743124944122514E-002  3.451815533135980E-002
  3.168339379199286E-002  2.893203242049659E-002  2.626690751607193E-002  2.369198091085019E-002  2.121337070489568E-002  1.883870882015337E-002  1.668628582784899E-002  1.461466089685941E-002  1.264349353014839E-002  1.079164130387106E-002  9.083793401011555E-003  7.455557673672501E-003  5.870947844334677E-003  4.432253969795120E-003  3.130849576461890E-003  2.004593757939752E-003
  1.113126553830220E-003  5.233177550599029E-004  2.483546295239766E-004  2.106831164645495E-004  4.964010677866451E-004  1.140248921597598E-003  2.093251942034684E-003  3.265484088411504E-003  4.585826821583072E-003  5.999946825350073E-003  7.707008087960634E-003  9.501069394962643E-003  1.139794588964283E-002  1.331123239030412E-002  1.527095619111982E-002  1.732540829003450E-002
  1.952550984750816E-002  2.183747990203438E-002  2.427125711410054E-002  2.676703544078157E-002  2.933241557066195E-002  3.201160153653831E-002  3.484431448787737E-002  3.782800851052748E-002  4.095217394748300E-002  4.420476717568674E-002  4.757490285992255E-002  5.105068005557632E-002  5.462868682946703E-002  5.830878252146969E-002  6.208360203989319E-002  6.631465151238478E-002
  7.069121826075486E-002  7.521071386002764E-002  7.986999415524453E-002  8.460015731258813E-002  8.947059688557459E-002  9.450765933882503E-002  9.970924352959201E-002  0.105077443036808       0.110602496605453       0.116303887918617       0.122222703629150       0.128408769342648       0.134875097220076       0.141624849393109       0.148654500866070       0.155965249051237     
  0.163560167445628       0.171440245941910       0.179609413153670       0.188071121343622       0.196829790022435       0.206070842578532       0.215652299342708       0.225579844185355       0.235862484311774       0.246508426150601       0.257524733341935       0.268921687906147       0.280709964586625       0.292896984657772       0.305493464393450       0.318511615042072     
  0.331958807420327       0.345844827327146       0.360182950408309       0.374973315028183       0.390226411063189       0.405948153951547       0.422123876624418       0.438763724249667       0.455810162289983       0.473254776933634       0.490771816444067       0.508154914900113       0.525402502232543       0.542517125827022       0.559502662209136       0.576042112633153     
  0.592112301821266       0.607693944658763       0.622786306460683       0.637391776061866       0.651474867791169       0.665047210121785       0.678124265859659       0.690724078593463       0.702867038245585       0.714604437029434       0.725978025902223       0.736995900378539       0.747666383149569       0.757991702733863       0.767980266558161       0.777640877582367     
  0.786982312061994       0.795926941832735       0.804543576599204       0.812837014522484       0.820813113875091       0.828476488580581       0.835831439053740       0.842885159027606       0.849699966996132       0.856305631770362       0.862705218004282       0.868902482549931       0.874901264520798       0.880705524879178       0.886318526857934       0.891743355421320     
  0.896983433546592       0.902043085793517       0.906930006873195       0.911648718029109       0.916203699249843       0.920406340426431       0.924493596016401       0.928463592278608       0.932319206991108       0.936045551016441       0.939639632439379       0.943107794674847       0.946442312673621       0.949646793008387       0.952736535560310       0.955687528916193     
  0.958506409807685       0.961249421497772       0.963913525618323       0.966496893424621       0.968998279287537       0.971417108964991       0.973754556796420       0.976011665091983       0.978191740654439       0.980298677641170       0.982284412823547       0.984215954667470       0.986078666717341       0.987877283708753       0.989615760065291       0.991295386448663     
  0.992911722510245       0.994466032548741       0.995960821178402       0.997451855369012      -1.020744750800258E-003 -8.358959464612502E-004 -9.485470565424441E-004  0.995608430834631       0.997051317093521       0.995602014796461       0.996847863478800      -2.431749785809381E-003 -3.854388231570633E-004  0.995287310527045       0.996067076918366      -2.018943608109464E-003
  0.994217212896072      -2.336178433115673E-003  0.993744544482336       0.992090416616391      -5.691937447934966E-004  0.992496619920542       0.993479791286619      -2.335861435615244E-003 -3.908749753685171E-003  0.994596493204560       0.994759610179916       0.998484858621377      -1.423312597837170E-003  3.531956439600639E-004  0.990746588929527       0.988976681958278     
  0.987202897456514       0.991591696194293       0.997796161902647       0.993083525146077       0.990878111091723       2.374595895899436E-004 -1.964212539480938E-003 -3.988645055553729E-003  0.992481000592556       0.997048542276625        1.00013324458476       0.997763144391487        1.00081272103690      -3.328059223355191E-003  1.366870343856924E-003  0.996181176424347     
  0.996567588199766       0.999127710961958       0.989150419820269       0.989762165261317       0.987911333924655       0.985998040367489       0.990607001100717       0.992386626703822       1.355912644553770E-003 -6.336811306509960E-004  4.055269944165316E-003   1.00192190698892       0.990139643559172      -5.342516950964409E-003  2.622645877441027E-003  0.990599327624276     
  0.987270223413283       0.988660296425894       2.624310932836034E-003 -4.031348516174538E-003  0.991341726243170       0.999542510579396       0.999002104516209       4.087117284085591E-003  0.988768929136911      -2.578871144047919E-003 -3.758501062843322E-003   1.00283156002109        1.00089878835097       0.994491986206893       0.998629188046546        1.00070489187951     
  0.993386182862647       7.421317524404472E-003 -2.393294638739546E-003  0.999269737238578       0.998419417221139       5.722025096761237E-003  0.985308625644424       0.983326591217849       0.991544309305878       0.997663614634853       0.986562237774700      -5.799920680545936E-003  0.987967503365478       9.088846794156467E-003 -5.327086175567462E-004  6.437449881235217E-004
 -5.348030834543036E-003  0.983903592118573        1.00310964375235       0.986782823053594       0.984577376027346       0.997453904659614       0.995420293935618      -1.511792568439013E-003   1.00370046434263        1.00558123959903        1.00143421887033       0.984419962688954       0.982175478837190        1.00053850037264       0.993851003571782       0.985780239335726     
 -4.769071560578623E-003  5.708315982719120E-003  1.927208226149275E-003  7.470076020237758E-003 -7.112191227704141E-003 -1.580670342624547E-003 -1.365920405925779E-004  5.540164634868351E-004  2.090014105633569E-003  0.994373908836417        1.00227915823244       0.995272147451149       0.987910947707247       0.992196567911109       0.981525079224616       0.979366960960574     
  0.982355333242961       3.792852594965622E-003 -5.552097196601998E-003 -7.414821038300604E-003  0.977216636333545       0.989375158958833       5.673707558976495E-003  0.985630959474711       0.990579519741780       0.993336172505555        1.00004729750969       0.999276691789133       3.511289886054752E-003   1.00503822969273        1.00400809833478       0.996220383934391     
  0.998174511487862       6.247080721732701E-003  0.999668922822036        1.00197325986366       1.086091885695906E-002   1.00258884514720        1.00653246404648        1.00427795864003        1.00687961618885       0.989722191991379       0.992876589918059       0.988700155575990       1.552083923579918E-003  7.465902780018187E-003  0.989667172419239       0.985555669804750     
  0.982898605082674       8.874064216512228E-003 -5.995677985361702E-003 -3.769090087052559E-003 -2.564955927783498E-003 -3.832627374974390E-003  0.991004214769816       0.992121316480414       0.980234664732950       0.978038847554773       0.975657579420528       1.133498244638639E-002  0.991706153919802       0.995664210240098       0.994639867149182       0.996752848945882     
  5.291600693520021E-003  1.330484973054987E-002  0.987309030860682       0.987004660079283        1.00289394069284       0.988946328119958       9.372417277202375E-003  0.986984985177067      -4.023015580747065E-003 -7.939487528761772E-003  0.981029420594391       0.979785318113494       1.284361590223868E-002  0.981571053040534       0.977297177573580      -5.983786804182006E-003
  0.985065987619761      -7.483519011282986E-003  1.089392427000756E-002  0.994239433416447      -2.837901770650100E-003  3.606414691689070E-003  0.975017196252918       1.132117865754272E-002 -3.595219164438503E-004  1.165020178116811E-003  1.531933286859358E-002 -9.777887274789177E-004  7.234669407710014E-003  0.978410934896475      -6.315451778674728E-003 -9.014911379769099E-003
  9.283220123542872E-003   1.00523714803209        1.00813323240018       0.979127792387416       0.976673793049132       0.973557742955900       0.984216864677051       0.982072030683540       0.993368105882045      -1.387446728025916E-003  1.325601264512896E-002 -9.744682391531695E-003  0.976383169238449       0.974019351183945       1.494897229521361E-002  4.903157159754141E-003
  8.639810847932311E-003  1.136628147896793E-002  0.972663865695732       0.970280055653857      -8.144514155673056E-003 -1.029134483228526E-002  3.393466299851079E-004  1.307312301878865E-002  0.983407346326117       0.980583005126934       0.982476668740914       0.979850955443396       0.980574382534793       0.980127849094976        1.00855987941073        1.00528828247638     
 -5.753633787571853E-003  9.645545469446795E-004   1.00181561790088        1.00105587196524       0.984481343270247        1.00391698679593        1.00356489085945       0.971525778638143       1.714654370766383E-002  0.981524373789197       0.982916421553633       1.103041062768878E-002  0.998341637791504       0.989241279973751       0.968951537962824      -3.687484360374034E-003
 -5.152340840619251E-003  0.985246687548593       0.995693108358820       1.530555616918217E-002  0.979175624387464       2.929014291397525E-003  1.746202645371631E-002  1.528444171196627E-002  0.973188455573738        1.00753420210779       0.978291705849033        1.00101689972541       0.999947123794301       0.978021396356895       0.997232321523021       1.337753488615151E-002
 -4.165757700020479E-003 -8.165057974617428E-003 -2.484739999029641E-003 -9.945032087129805E-003 -9.634767347175782E-003  3.372359856317434E-003  0.975316193636826       0.975577718433497       0.973000658791611       1.143706102612969E-002   1.00918468394324       0.970491887651985       0.968023681562302       7.058435671095477E-003  0.971384649695297       0.965534689617427     
  0.963295334619330       8.726972816737774E-003 -7.886743906308747E-003 -1.079534162192273E-002 -1.930924086311506E-003  1.975176763142493E-002  1.754996999038055E-002  0.996110441184446        1.00274597600306      -1.177752233523784E-002  0.982615461382291       0.979437857156401      -5.493312978751476E-004 -7.035116856370528E-003  1.516595215868903E-002   1.00165943502356     
 -1.044290089657093E-002 -1.278362399925018E-002  0.977364619274504       0.976885051129351       9.341696781660622E-003  9.958459716877838E-003  0.987283628145164        1.01065683194279       0.990184230145932       1.563634125897703E-002  2.317494177169110E-003  0.969175293044687       0.966681161558320       0.964044567607964       0.960983145589343       1.761041689424076E-002
  1.925911463750868E-004  0.970296460367800       1.375173698927895E-002  1.946214465330131E-002 -1.215345980552462E-002  0.993083453179041       0.994486016215565       0.997226574629388       7.001985771450128E-003 -6.502065175212031E-003   1.00586590565079        1.00583028370554       0.967457398250878      -5.492002648364501E-003 -4.891009502799404E-003  4.535918859671538E-003
  0.970561136771613       1.259698112976237E-002  0.998872213193009        1.00056395966849       2.214557909402471E-002  1.997406717125180E-002  1.763185366987262E-002 -3.673309547953508E-003  2.188704815841257E-002  0.974735179950283       0.971916390596596      -1.456108301049953E-002  0.987658610872327      -1.037166551035696E-002   1.01029255020180       1.570081438149398E-002
  9.140729847651888E-003  2.003977668074161E-002   1.00446687944620       0.967983496532233       0.965402900145553       0.995861593917278       0.962435750332621       2.455223354528248E-002  6.040495831236882E-003  2.247194236444699E-002   1.00846173747130       6.886394867220743E-003  4.185030119973366E-003  3.871239740110594E-003  1.801909150343377E-002  3.188186538876017E-003
 -8.615676765376274E-003  0.990158601943325       0.985169758803328       0.983153806353497       0.985568778478588       0.987606083624919       0.994806712737423       1.505691082243919E-002 -1.528453871271878E-003  0.966057609849206       2.065287969787023E-002  0.969259865890691       0.990669268504892       0.989684916788252       0.987331630292891       0.985123181902064     
  0.988015770985823       0.988953528071727      -1.221294614141502E-002 -3.120773815787350E-003   1.00004957539118       0.984287592198748       0.968151491694004       0.997746532062969       0.996527682198002       2.691530044528770E-002   1.00793808808640        1.00616853242949        1.00970272989729        1.01139762934464      -1.284016081655223E-002 -1.544432805713428E-002
 -8.246188731171014E-003  2.027085594232007E-002  1.774864190186415E-002  1.498749764765784E-002 -9.850125853791131E-003  0.990481315520381        1.00881007017063       6.064056890062698E-003  0.980291552364959      -6.941066335380460E-003  0.992157872162412       0.992864146800344       0.994019764942150       1.682432716782378E-003  0.972112663412007       1.292716675852329E-002
  1.250746871787333E-002  0.980753431703982       0.970496254253898       0.959123565115958       0.962927571860143       0.960048413139620        1.00396489234759       0.964570794897464       0.967601496281309       0.973477306191237       0.971801523903579       0.975458604264412       0.976373147069974       0.974761590187390       0.973132030463759       0.957070528492040     
  0.953796787431016      -5.043811791032801E-003 -1.260802211555255E-002   1.01189988239291        1.01310514554538       0.982230083736764       0.979665191982560       6.445553803854424E-003  5.915609712668940E-004  1.059852158281664E-003  7.476269841685313E-004 -6.133537217395344E-003   1.01118817860160        1.00688408289631      -1.018554381648604E-002  2.949862151782706E-002
  2.663175504008249E-002 -1.493594118833834E-002  9.611747909311349E-003 -1.529534726050091E-002 -1.822763900639665E-002  0.991834064692528       0.989932891206976      -1.243595908992166E-002 -1.517454919798259E-002  2.675586086888921E-002   1.01080149825881       1.226864224325674E-002  0.986319952416756       0.986908875327127        1.00287111685861        1.00886728189442     
   1.01173610962525       0.987532354444065       0.961744719966606       0.958802907849597       0.955578130371204       0.952052784717562      -2.677935478091359E-003  0.977714862226934       0.984755756335662       0.984170972184133       0.982460925148864        1.00900885849993       0.977340951210474      -1.208574667436373E-002  0.983929816548525       0.966922846370153     
  0.968839506507707       0.970189632653074       0.971361527121151        1.01090021941691        1.01147558113739      -8.560112646932789E-003 -1.786317286191265E-002  0.963338020611780       0.973727804504292       0.970807491693918       6.643025506091397E-003   1.00701329561490      -4.217737089671613E-003 -7.862203959165585E-003   1.01170134255493        1.00402359431206     
   1.00190393485530        1.01269105860730       2.312834598455686E-002  2.942999392866042E-002  2.671685375621118E-002 -9.238700755793375E-003  2.253663095716204E-002  2.432948968660913E-002  2.345136128928462E-002  0.977984616628720       0.976553320163009       3.642424840139555E-003  2.879346082875537E-003  0.998918173694996       9.597977120251325E-003   1.01377601455992     
  0.960807118298858       0.987499495950712       0.993220545720819       0.995072407052713       0.957547163673184      -1.186024485983763E-002 -1.505643293189936E-002  0.964432613154712       0.980063427591673      -1.505059483244106E-002  0.981136525535442       0.984351268128169       0.990719942379252        1.00630730947856       0.972821544046436       0.968995406522762     
  0.965932782564856       0.963649459740572       0.967617429933999        1.01314658014616      -7.369689601267270E-003 -1.089494204640653E-002  1.205824639987746E-002  2.473651813560133E-002  2.066995532090706E-002  1.787884253558929E-002  3.227366865556403E-002  2.981341438787322E-002  2.835800006305314E-002   1.00486130338738       1.490597719504972E-002 -1.649237769840604E-003
 -1.637356725567483E-003   1.01398432812586        1.01629356892240      -1.516919736327009E-002  0.954437065230900       0.951318781784500       3.235387065791179E-002  3.007570140733974E-002  2.782547448971632E-002 -1.243609960566833E-002   1.01365875901369        1.01735299850271       0.975255288500233       0.969815108344649      -5.301508900931829E-003  9.352970909084213E-003
  6.798856829083204E-003 -1.824871970531962E-002   1.01390542126443        1.01500369892305       2.477368891860179E-002  2.137263140830298E-002  0.965741884338719       0.967262790726838       0.968759300191474       0.968946284352335       0.997634394150880        1.00536980805196        1.00810160071228        1.00390691815931      -1.037727775580917E-002 -1.289963179589381E-002
 -1.506591867761990E-002  0.948132298117028      -1.066376307073228E-002 -1.406954434839554E-002  0.975159633226590       0.955926787174414        1.00886868363481        1.01170830110260       0.980973103894520      -1.397815489299253E-002  0.991081475585978      -1.763420672282177E-002 -2.091620764378670E-002  3.526879668818562E-002  3.309089230316811E-002  3.095597631653054E-002
  2.898476305102442E-002  0.972217115464166       0.975017584762689        1.00082942713714       0.999585875121835       2.402075570893213E-002   1.00702586549674       5.196556917219840E-004  6.444181105645290E-003  3.592643265896956E-003  0.966532612212221       0.968914021627574       0.978173011825178       2.454334433512568E-002  1.841045141382062E-002  1.575918348958973E-002
  0.999594133051638        1.00213343393262       0.998677635876251        1.00579354227700        1.01446144795857        1.01466417599881       1.282949018249826E-002   1.00339032383532       3.519466296038812E-002  3.228749178814120E-002  0.952872354858033       0.949612502627181        1.00522188736400       0.946040638470562       3.820007194074183E-002  3.596502633327894E-002
  3.384857408275579E-002   1.00885449188250       0.960679233056770       0.957189992548153       1.890402206367216E-002  0.962311781122219       0.984797417663897       0.976822675474986      -1.666750967455851E-002  0.965435675086274       2.102640513327309E-002  1.797872307570062E-002  0.964021708974318       0.966016352551097       3.779273542508407E-004 -6.823441593355755E-003
 -1.385743603065073E-002  9.838386807702099E-003  0.963730697318127       0.961530003722025       0.967857407994752      -1.748617718654187E-002  9.057114707214816E-003  0.954391219326074       1.478821931964510E-002  2.218953497650309E-002  2.560233460423554E-002 -1.237016831766262E-002 -1.530621183412155E-002 -1.375089550810759E-002 -1.707517868378518E-002 -1.746767002183468E-002
  0.954407991319256       0.958586331188053      -2.152575056245257E-002  4.123428215444602E-002  3.882625599416750E-002  3.648053619280545E-002  3.469359406647449E-002  6.799048087493736E-003   1.01223668975614        1.01681018988782        1.01876263417910        1.00958991838306        1.01649823877599       0.971605668183697       0.975003250713914       0.960386336675827     
 -1.974912412324546E-003  3.835742151101808E-002  3.556837798027027E-002  3.251800722697205E-002  0.951536220039803       0.947762298021859       2.443334247365378E-002  0.996564118508677       4.267356041208776E-003  3.941838841294580E-003 -1.791995723472460E-002 -1.573322009326046E-002 -1.760264365754896E-002  0.962372061541170       0.958472435520647       0.977916022945060     
  6.339683137332970E-003  4.211662466323174E-003  1.312503673227116E-002  1.176043517591899E-002  0.943208872886150       0.948491532111351      -1.823049071672512E-002 -1.813916990252538E-002 -1.747931625645961E-002 -2.126630772860034E-002  0.964689766415246       4.442623719230190E-002  4.196944166046239E-002  3.903315292877045E-002  1.953845459623948E-002  0.954157535927098     
  0.957570410488173       0.959738415537703       0.950627924709478       0.956311090004212       0.952760992021197       0.949156901519855       8.382265851794593E-003 -1.227248694601941E-002  0.997596932662636       0.974164917427221       0.972953209567840      -2.025504340079562E-002 -2.021745356713922E-002  0.970613614932832       1.612202723729329E-002  1.358471422314727E-003
  0.981292119802760       0.984336153425396       1.660552038906287E-002  2.128261413511297E-002  1.806638690501833E-002  1.468143047397461E-002  4.162419519195951E-002  3.895908036146006E-002  0.978625468645225       0.973429843254629       9.982428119200680E-003  6.677598702388215E-003  0.945051622856461       0.941562546481495       8.832048507849937E-004  1.136696854166645E-002
   1.01404681066291       0.960586839304756       0.956458877055841      -1.921286461277379E-002 -2.145108356359127E-002  0.937974855204710       0.934336329013791       2.312507169642931E-002  0.947100703354422       3.607832212003478E-002  3.287151381653838E-002  2.690924128896045E-002  4.774213866463122E-002  4.534795208933501E-002  4.289655132788160E-002  4.082716831239243E-002
 -8.101177198993397E-005  0.987539547516513       0.990768013660678       0.954991084361952       3.674762960930544E-003 -2.016681083812567E-003   1.01404752976977       2.476707469998967E-002  4.493495797829505E-002  4.231222222884803E-002  3.977633593215553E-002  2.028458869576163E-002  7.556601100552997E-003  1.345265311239801E-002  0.943597540374427       0.940017810766996     
  0.942236218987709       0.987507003723745       0.993958908337365       0.994032200203847       0.945284346864930      -2.278875827670611E-003  0.958588773929787       0.951255654750299       0.947493200488062       0.988477706535211       0.992167250341896       0.938142984241339        1.01060581730118       0.990779561582398       0.934344385101959       0.956478272061615     
  0.954468226346194       0.952322189177082       0.971503421123111       0.945648372239539       0.957434607852053       1.010373280009943E-002  6.502508753950964E-003   1.01634523331082        1.01492348365107        1.01635653499665        1.01859063261188       7.648517876731384E-004 -1.465740390625611E-003  1.102628715061034E-002  4.832365340315806E-002  4.554325556252655E-002
  4.298026948369555E-002  4.148926545850169E-002  0.950122952480551       0.946007748157645       0.930339334814019       2.155975984201080E-002  1.820486823999012E-002  2.727107852353935E-002  0.989421507937275       0.978154897311612       0.982033280313632       0.985769397192162       0.974867395537409       0.974858553723071       5.116338192782437E-002  4.873107645661497E-002
  4.626853590178025E-002  4.389644363616108E-002  4.081924308921481E-002  0.953516495475747       0.955918015245496       1.467900734280918E-002  1.715682584773078E-002  0.961456371280700       0.993095702839764       0.963980470332429       0.959968398973749       0.966532753482608       0.939759080430227       0.997964170129034        1.00096269188462       0.994173950168843     
  0.942210766452451       0.938529473893040        1.00185078322032       0.948492228516439       1.381420643982207E-002   1.01752859633449       2.890289325882980E-002  3.094887413126422E-003  0.936275219154126       0.952437523777371        1.00028356537372        1.00302005159603        1.00614891343755       0.967266225476768       0.944612444185113       0.949547020196433     
  0.944999289142396       7.001201888050046E-003  5.186793566505992E-002  4.893955001118128E-002  4.572488372115952E-002 -8.949900462392425E-003 -1.205133388952220E-002 -1.545987150805015E-002 -5.218856268811586E-003 -7.578802720824251E-003 -3.252043830026813E-003  0.987374681429275       0.979306111252101       0.999303482213025       0.944309637527050       0.936351720000903     
  0.932333997418779       2.531022641513037E-002  2.925970728225457E-002  2.422847612677782E-002  0.996861505043243       0.998209070611384       0.990750322590972        1.01787128461307        1.01995731028010       0.990238628748663       0.995759953644371       0.996884217159466       0.994016336105737       0.984155082909606       0.962910852878784       1.025352717286685E-002
  6.423230517831191E-003  0.934493927212116       0.950526940060600       0.948192238934952       3.185098641551957E-002  3.076000268253038E-002  2.878683350944075E-002  0.941771478679488       0.947122234868317       0.943706821511005       5.471323497678758E-002  5.220420143589460E-002  4.960861738498878E-002  0.983108921013639       0.986664065150542       0.987164337799302     