 variables= "x","y","fpcb"
 zone i=           6  datapacking=point
  6.879824237256602E-002  0.567750965283958       0.000000000000000E+000
  6.690147767392290E-002  0.583015457619066       0.000000000000000E+000
  6.292531661720689E-002  0.543338138465056       0.000000000000000E+000
  7.122481183136722E-002  0.526635117303825       0.000000000000000E+000
  7.063639795417204E-002  0.558958454534684       0.000000000000000E+000
  6.496391900479224E-002  0.547287295648411       0.000000000000000E+000
