 variables= "x","y","fpcb"
 zone i=          12  datapacking=point
  3.490658503988659E-002  0.650000000000000       0.000000000000000E+000
  3.479115019343543E-002  0.655656329210872       0.000000000000000E+000
  3.782057741165509E-002  0.626834140627114       0.000000000000000E+000
  3.104291281436109E-002  0.668674248399769       0.000000000000000E+000
  3.964762957574538E-002  0.642638313932344       0.000000000000000E+000
  3.638042907490251E-002  0.620324079819496       0.000000000000000E+000
  3.291721137676912E-002  0.672264072012450       0.000000000000000E+000
  3.366524575692977E-002  0.633167406977663       0.000000000000000E+000
  3.570046748166525E-002  0.677336348319224       0.000000000000000E+000
  3.829597759869861E-002  0.650188021852399       0.000000000000000E+000
  3.002454262813212E-002  0.640992366768299       0.000000000000000E+000
  3.225190279748263E-002  0.660526460723396       0.000000000000000E+000
