 variables= "x","y","f"
 zone i=           6  datapacking=point
  2.592278346418874E-002  0.601840377203844       4.445392503091128E-003
  2.775719563592230E-002  0.577078044733987       4.306752506113646E-003
  1.875468330103442E-002  0.626556228504324       4.287733844891404E-003
  2.135871374018849E-002  0.596390856092536       4.090061802718814E-003
  1.967665155427769E-002  0.616976731012557       4.217029446245781E-003
  2.359137531570600E-002  0.583776512333715       4.106673936636503E-003
