 variables= "x","y","fpcb"
 zone i=           6  datapacking=point
  3.197348625972544E-002  0.548870916821931       0.000000000000000E+000
  3.863076844988801E-002  0.583499034067198       0.000000000000000E+000
  3.102353436424277E-002  0.558265570498690       0.000000000000000E+000
  3.382527126635257E-002  0.569443378820258       0.000000000000000E+000
  3.537949485961372E-002  0.534867840448542       0.000000000000000E+000
  3.836317053510735E-002  0.573794422956819       0.000000000000000E+000
