 variables= "x","y","f"
 zone i=          15  datapacking=point
  4.329649476737285E-002  9.425551371536028E-002  6.005003280346963E-004
  5.112325757096414E-002  0.114952056604528       7.398468569874068E-004
  4.866371144622902E-002  8.174839545817714E-002  6.550844595203378E-004
  4.954439203536432E-002  8.781551122616935E-002  6.724306416297657E-004
  4.586407497657791E-002  9.383022215624592E-002  6.321318399311643E-004
  4.664022186583709E-002  7.507682574088878E-002  6.264070539936811E-004
  5.024081881242062E-002  7.074327039067094E-002  6.697951837595323E-004
  4.443655798395361E-002  0.124678498983255       6.628520586992918E-004
  4.565802471561651E-002  0.126065456256926       6.828634110401730E-004
  5.256990758801756E-002  0.112656352527302       7.565122641521546E-004
  4.239461911810980E-002  0.109849971039576       6.098865274641069E-004
  4.415339093853105E-002  8.299630788631400E-002  6.005581705280862E-004
  4.842582380800151E-002  0.105479688480699       6.833703694557533E-004
  5.166150232483958E-002  9.965734050926700E-002  7.184626274504642E-004
  4.785457905099907E-002  0.119454983038194       7.013750187574016E-004
