 variables= "x","y","fpcb"
 zone i=           6  datapacking=point
  2.090411845986593E-002  0.628462441987653       0.000000000000000E+000
  2.718654283405211E-002  0.611798648920247       0.000000000000000E+000
  2.347325505260661E-002  0.573428559129205       0.000000000000000E+000
  2.023824640985844E-002  0.607329442528835       0.000000000000000E+000
  2.867149235545580E-002  0.589476743560067       0.000000000000000E+000
  2.455688678651617E-002  0.599165177378457       0.000000000000000E+000
