 variables= "x","y","fpcb"
 zone i=           6  datapacking=point
  2.934204064470881E-002  0.600131236620214       0.000000000000000E+000
  3.447125937845883E-002  0.603419371429907       0.000000000000000E+000
  2.453570073355956E-002  0.615812991369755       0.000000000000000E+000
  3.000625364582535E-002  0.619383320734389       0.000000000000000E+000
  3.173845127523138E-002  0.589908944660251       0.000000000000000E+000
  2.640889980859712E-002  0.574070272410019       0.000000000000000E+000
