 variables= "x","y","f"
 zone i=          12  datapacking=point
  4.169955151469275E-002  0.600030311243708       2.566614707303664E-003
  3.985348400556898E-002  0.616880171194575       2.827732956914414E-003
  4.616236142178956E-002  0.606535599221526       2.946076285307042E-003
  3.928906358475207E-002  0.592587175964867       2.373356644880637E-003
  4.184617629411409E-002  0.619619316779891       3.345931704073080E-003
  3.653999452511506E-002  0.628809994661658       3.584102797948641E-003
  4.535843788820605E-002  0.601987702295694       2.793490431016350E-003
  4.421062740472652E-002  0.590628998851220       2.603912479559141E-003
  4.329072220566595E-002  0.610354752629625       2.848812382221752E-003
  3.812789951100695E-002  0.581098504429002       2.224335112064570E-003
  4.306794965749836E-002  0.576789540249477       2.423670174670749E-003
  4.105292084148865E-002  0.570574030532741       2.280493839473233E-003
