 variables= "x","y","f"
 zone i=           6  datapacking=point
