 variables= "x","y","f"
 zone i=           6  datapacking=point
  2.090411845986593E-002  0.628462441987653       4.523689380840910E-003
  2.718654283405211E-002  0.611798648920247       4.724142619168367E-003
  2.347325505260661E-002  0.573428559129205       4.057778757470066E-003
  2.023824640985844E-002  0.607329442528835       4.186893271660195E-003
  2.867149235545580E-002  0.589476743560067       4.542788968189444E-003
  2.455688678651617E-002  0.599165177378457       4.372920302135390E-003
