 variables= "x","y","f"
 zone i=           6  datapacking=point
  2.934204064470881E-002  0.600131236620214       0.674740699732035     
  3.447125937845883E-002  0.603419371429907       0.724492220352222     
  2.453570073355956E-002  0.615812991369755       0.648417417157066     
  3.000625364582535E-002  0.619383320734389       0.703206062450507     
  3.173845127523138E-002  0.589908944660251       0.685428490971666     
  2.640889980859712E-002  0.574070272410019       0.624776882206967     
