 variables= "x","y","f"
 zone i=          15  datapacking=point
  2.867343301999768E-002  0.430057487003529       8.553870812976649E-002
  1.501965966262498E-002  0.576184068361988      -1.498706243617035E-002
  2.241287030007469E-002  0.685636965415377       5.435911054940209E-002
  5.803987283845045E-002  0.620477750119423       0.360708131393585     
  1.162385659951232E-002  0.429546266429746      -3.873468545927933E-002
  5.283325540028067E-002  0.664099902078743       0.338200841199584     
  3.924787937820738E-002  0.567054249940031       0.182507405364342     
  1.635253010553173E-002  0.480778757226447      -4.095377939276851E-003
  3.139209923238520E-002  0.648572714457506       0.132423905441534     
  3.586682438724578E-002  0.541611903780278       0.150884020051262     
  5.727898559031865E-002  0.451266845427977       0.297291148453763     
  4.807122332457055E-002  0.501871109125449       0.238769806716832     
  2.363032722641820E-002  0.607731081953142       5.817636449865046E-002
  4.363564747974092E-002  0.516294402194014       0.207463225367322     
