 variables= "x","y","f"
 zone i=           6  datapacking=point
  6.095798804556610E-002  0.574297243422393       5.103459553505411E-002
  5.771316283166990E-002  0.564479733831821       4.950772839066839E-002
  5.649359936271296E-002  0.551596045236819       4.895118421517735E-002
  6.167310024716451E-002  0.535441835355982       5.122994351956624E-002
  6.350269270524676E-002  0.561636362675378       5.205072101127548E-002
