 variables= "x","y","fpcb"
 zone i=           6  datapacking=point
  6.095798804556610E-002  0.574297243422393       0.000000000000000E+000
  5.771316283166990E-002  0.564479733831821       0.000000000000000E+000
  5.649359936271296E-002  0.551596045236819       0.000000000000000E+000
  6.167310024716451E-002  0.535441835355982       0.000000000000000E+000
  6.350269270524676E-002  0.561636362675378       0.000000000000000E+000
  5.552572787239348E-002  0.533057025260679       0.000000000000000E+000
