 variables= "x","y","fpcb"
 zone i=           6  datapacking=point
  2.983979447490290E-002  0.585758311173462       0.000000000000000E+000
  3.546242281648261E-002  0.539935897485730       0.000000000000000E+000
  3.412461085664463E-002  0.542629051479665       0.000000000000000E+000
  3.808641416807159E-002  0.576468221063602       0.000000000000000E+000
  3.980370615537704E-002  0.551391421701402       0.000000000000000E+000
  3.283897953486915E-002  0.565624536701938       0.000000000000000E+000
