 variables= "x","y","fpcb"
 zone i=          12  datapacking=point
  4.169955151469275E-002  0.600030311243708       0.000000000000000E+000
  3.985348400556898E-002  0.616880171194575       0.000000000000000E+000
  4.616236142178956E-002  0.606535599221526       0.000000000000000E+000
  3.928906358475207E-002  0.592587175964867       0.000000000000000E+000
  4.184617629411409E-002  0.619619316779891       0.000000000000000E+000
  3.653999452511506E-002  0.628809994661658       0.000000000000000E+000
  4.535843788820605E-002  0.601987702295694       0.000000000000000E+000
  4.421062740472652E-002  0.590628998851220       0.000000000000000E+000
  4.329072220566595E-002  0.610354752629625       0.000000000000000E+000
  3.812789951100695E-002  0.581098504429002       0.000000000000000E+000
  4.306794965749836E-002  0.576789540249477       0.000000000000000E+000
  4.105292084148865E-002  0.570574030532741       0.000000000000000E+000
