 variables= "x","y","fpcb"
 zone i=          15  datapacking=point
  4.329649476737285E-002  9.425551371536028E-002  0.000000000000000E+000
  5.112325757096414E-002  0.114952056604528       0.000000000000000E+000
  4.866371144622902E-002  8.174839545817714E-002  0.000000000000000E+000
  4.954439203536432E-002  8.781551122616935E-002  0.000000000000000E+000
  4.586407497657791E-002  9.383022215624592E-002  0.000000000000000E+000
  4.664022186583709E-002  7.507682574088878E-002  0.000000000000000E+000
  5.024081881242062E-002  7.074327039067094E-002  0.000000000000000E+000
  4.443655798395361E-002  0.124678498983255       0.000000000000000E+000
  4.565802471561651E-002  0.126065456256926       0.000000000000000E+000
  5.256990758801756E-002  0.112656352527302       0.000000000000000E+000
  4.239461911810980E-002  0.109849971039576       0.000000000000000E+000
  4.415339093853105E-002  8.299630788631400E-002  0.000000000000000E+000
  4.842582380800151E-002  0.105479688480699       0.000000000000000E+000
  5.166150232483958E-002  9.965734050926700E-002  0.000000000000000E+000
  4.785457905099907E-002  0.119454983038194       0.000000000000000E+000
