 variables= "x","y","fpcb"
 zone i=          15  datapacking=point
  2.867343301999768E-002  0.430057487003529       0.000000000000000E+000
  1.501965966262498E-002  0.576184068361988       0.000000000000000E+000
  2.241287030007469E-002  0.685636965415377       0.000000000000000E+000
  5.803987283845045E-002  0.620477750119423       0.000000000000000E+000
  1.162385659951232E-002  0.429546266429746       0.000000000000000E+000
  5.283325540028067E-002  0.664099902078743       0.000000000000000E+000
  3.924787937820738E-002  0.567054249940031       0.000000000000000E+000
  1.635253010553173E-002  0.480778757226447       0.000000000000000E+000
  3.139209923238520E-002  0.648572714457506       0.000000000000000E+000
  3.586682438724578E-002  0.541611903780278       0.000000000000000E+000
  5.727898559031865E-002  0.451266845427977       0.000000000000000E+000
  4.807122332457055E-002  0.501871109125449       0.000000000000000E+000
  2.363032722641820E-002  0.607731081953142       0.000000000000000E+000
  4.363564747974092E-002  0.516294402194014       0.000000000000000E+000
  4.235406454227787E-002  0.700017680380904       0.000000000000000E+000
