 variables= "x","y","fpcb"
 zone i=           6  datapacking=point
  2.592278346418874E-002  0.601840377203844       0.000000000000000E+000
  2.775719563592230E-002  0.577078044733987       0.000000000000000E+000
  1.875468330103442E-002  0.626556228504324       0.000000000000000E+000
  2.135871374018849E-002  0.596390856092536       0.000000000000000E+000
  1.967665155427769E-002  0.616976731012557       0.000000000000000E+000
  2.359137531570600E-002  0.583776512333715       0.000000000000000E+000
