 VARIABLES = "X" "Y" "RO" "U" "V" "P" "M"
 ZONE T="  0.000000000000000E+000 " N=        9944  E=       19548
 ZONETYPE=FETRIANGLE DATAPACKING=BLOCK
 VARLOCATION=([3-7]=CELLCENTERED)
  -19.9782054645671       -16.7460447536127       -13.5432470514743       -10.4462771124608       -7.39483127129757       -4.39431260318683       -1.43672854734527        1.47853524247441        4.40194279230921        7.38347804238703        10.4122197804982        13.5308676756442        16.7310607632789        20.0189460056259        20.0156650185539        20.0123451374732     
   20.0090067226427        20.0056742799471        20.0022854763303        19.9988742323503        19.9954939648514        19.9920871178897        19.9886881104951        19.9853470049941        19.9820070605281        19.9783478910574        16.7317203104092        13.4557822172063        10.1645634122701        6.87452312340184        3.53259687976399       0.170578499054329     
  -3.16443525887912       -6.48474521199279       -9.79114624567630       -13.0836966857758       -16.3754018560739       -20.0188035791356       -20.0155069002833       -20.0121812769038       -20.0088400757232       -20.0054989473046       -20.0021446450312       -19.9987763328347       -19.9953939522161       -19.9920253568386       -19.9886729196427       -19.9853365630757     
  -19.9819979716434       0.999782297799163       0.998265843351751       0.996753779598714       0.995251930849533       0.993705504569818       0.992098165011157       0.990425063676051       0.988690675951980       0.986894883015794       0.985035354320756       0.983098087019003       0.981091617492427       0.978999755522907       0.976835175396955       0.974594018151232     
  0.972268873376995       0.969857187315358       0.967358135474088       0.964769396665348       0.962091328883649       0.959318949522608       0.956444446634279       0.953456700967035       0.950346291974988       0.947141937660079       0.943821962188109       0.940353789756833       0.936779796202401       0.933087855955732       0.929256492463429       0.925250774475196     
  0.921101333862166       0.916802903834037       0.912341582311867       0.907708377020074       0.902896820874857       0.897900370120467       0.892706424409162       0.887302201582028       0.881680015141932       0.875832074603057       0.869759495708973       0.863455023678142       0.856910684646561       0.850116437942153       0.843063394403574       0.835743041505192     
  0.828148974314454       0.820272739137330       0.812106044516495       0.803640483124248       0.794867189110568       0.785778490019280       0.776365462508175       0.766503925950932       0.756282797328335       0.745690648773523       0.734716804299680       0.723354248218069       0.711590605271168       0.699413224797518       0.686814840764588       0.673783682696572     
  0.660305824622314       0.646373864860299       0.631974295815967       0.617090411401153       0.601711073373708       0.585815621138042       0.569391542907549       0.552423325211706       0.535500199409842       0.518539985046075       0.501510394996172       0.484411482062639       0.467242826569713       0.449354643099320       0.432062941646545       0.415366156100405     
  0.399262586494643       0.383736277888775       0.368702511883290       0.354142931768804       0.340053473295090       0.326442983044478       0.313296457200928       0.300614959048053       0.288399443429507       0.276631627588411       0.265286463741558       0.254316455145045       0.243708982986550       0.233451653529981       0.223537210118708       0.213957557880489     
  0.204701013503545       0.195756333389279       0.187118919949893       0.178772508807881       0.170707408419776       0.162906597376649       0.155363242393859       0.148070954065222       0.141023635640999       0.134215075530224       0.127638378932891       0.121287978996939       0.115158670654895       0.109245149891697       0.103542886476192       9.804751293846624E-002
  9.275485129271560E-002  8.766142779021135E-002  8.276352336548566E-002  7.805739102066089E-002  7.362129626882456E-002  6.934808950216266E-002  6.523945375435981E-002  6.129365359590216E-002  5.751083283544679E-002  5.386892240261468E-002  5.037960452899724E-002  4.704079363741199E-002  4.383472796531612E-002  4.073213659915025E-002  3.772988474502709E-002  3.480504928549860E-002
  3.195794047464447E-002  2.919360407989633E-002  2.651484139825577E-002  2.392557994090392E-002  2.143191188852219E-002  1.904145203523864E-002  1.687332368823679E-002  1.478507881083253E-002  1.279641987848762E-002  1.092627453335022E-002  9.199520408053493E-003  7.550878299117486E-003  5.943363052327124E-003  4.480113829615324E-003  3.151675142371443E-003  1.995550041955005E-003
  1.071530988601196E-003  4.480887783975569E-004  1.420028645733757E-004  7.256740027908326E-005  3.164418452873287E-004  9.183023288129890E-004  1.830558760306384E-003  2.964750907307183E-003  4.249924254274440E-003  5.631630797262780E-003  7.304240826339822E-003  9.065914681479723E-003  1.093164048915462E-002  1.281596499358996E-002  1.474805172709078E-002  1.677532743267369E-002
  1.894801991998466E-002  2.123277717209545E-002  2.363940728021683E-002  2.610872334401982E-002  2.864816883619157E-002  3.130147468715968E-002  3.410801119423402E-002  3.706530900511601E-002  4.016299291698579E-002  4.338914831380090E-002  4.673299304042391E-002  5.018272368713778E-002  5.373495348019186E-002  5.738954297358768E-002  6.113917735631576E-002  6.534308482447612E-002
  6.969269477202165E-002  7.418545972553600E-002  7.881827719007352E-002  8.352263589237990E-002  8.836755181080913E-002  9.337926609446114E-002  9.855572798333301E-002  0.103899060043163       0.109399582559052       0.115076731325568       0.120971473194851       0.127133509909001       0.133575897571458       0.140301883918828       0.147308052108244       0.154595689340995     
  0.162167953181259       0.170025924451013       0.178173615110590       0.186614564024456       0.195353277149505       0.204574902281285       0.214137916815350       0.224048116262964       0.234314619058211       0.244945751122314       0.255948703916576       0.267333890911291       0.279112127474580       0.291290987709309       0.303881347955050       0.316895590802223     
  0.330341271885123       0.344228372624506       0.358570378370363       0.373367645820780       0.388630897063325       0.404366289452566       0.420559383644568       0.437220578685541       0.454292496150162       0.471766917424695       0.489317629636995       0.506737787999110       0.524025664597604       0.541183651525825       0.558215467284681       0.574802987211114     
  0.590922616854788       0.606554660585442       0.621698039819323       0.636354827015228       0.650489099992404       0.664112234848037       0.677239484812165       0.689888722649355       0.702080204856013       0.713865243262202       0.725285599631732       0.736349264081266       0.747064471300628       0.757433351736358       0.767464255460275       0.777165944009192     
  0.786547165405175       0.795529907455768       0.804183231961352       0.812511927358235       0.820521856218638       0.828217639809121       0.835603591698886       0.842686936817905       0.849530259579418       0.856163459148345       0.862589620849352       0.868812526993707       0.874836043657210       0.880664159747007       0.886300163450076       0.891747163321778     
  0.897008606238086       0.902088842906925       0.906995606197170       0.911733440796697       0.916306848199822       0.920526459190270       0.924630187143699       0.928616149207831       0.932487232182106       0.936228484071896       0.939836897726097       0.943318838404829       0.946666547138293       0.949883642116303       0.952985480937698       0.955947956874916     
  0.958777732925821       0.961531268817921       0.964205512243735       0.966798626216775       0.969309360164954       0.971737138509795       0.974083141699167       0.976348418476230       0.978536290910824       0.980650670819830       0.982643332721446       0.984581525877150       0.986450567655457       0.988255214335457       0.989999438956582       0.991684541877288     
  0.993306074282290       0.994865311057254       0.996364771245857       0.997860398895376      -1.144883790523676E-003 -9.298459324275614E-004 -1.105952942845769E-003  0.996030008456934       0.997470918497193       0.996024337457284       0.997250649331372      -2.572610895197222E-003 -4.485918299664212E-004  0.995686191413233       0.996465022063118      -2.102181032995285E-003
  0.994640970159922      -2.448696258592885E-003  0.994139492280637       0.992480353850589      -7.668358138147178E-004  0.992923182197071       0.993905414097586      -2.508995898065456E-003 -4.038793038941294E-003  0.994991759727849       0.995151550792254       0.998890801359628      -1.476202417185228E-003  3.215817285285854E-004  0.991175765198948       0.989408396367780     
  0.987637135505263       0.992019896844208       0.998197436075578       0.993474463739554       0.991262240346632      -4.131012251108214E-006 -2.185857081351668E-003 -4.142810071235417E-003  0.992908352511650       0.997444736982166        1.00054057651424       0.998182492816027        1.00122389666261      -3.401279645354013E-003  1.365982459471638E-003  0.996570649931887     
  0.996989589923283       0.999543804409092       0.989531253438919       0.990192718217533       0.988344231527717       0.986433365590234       0.990992721633504       0.992771091671025       1.077025456775736E-003 -8.938551051477202E-004  3.706722893203500E-003   1.00232821165530       0.990517228625996      -5.485185388692304E-003  2.650744235907774E-003  0.991028952056466     
  0.987644510661610       0.989036653728459       2.310071942216446E-003 -4.218608915819193E-003  0.991770635498369       0.999959825329349       0.999401557915216       4.142394169690173E-003  0.989200518648889      -2.622113406265638E-003 -3.861300587506316E-003   1.00324014898437        1.00130104052459       0.994916771578854       0.999048533483156        1.00112176023413     
  0.993812695036855       7.524387475661461E-003 -2.642494433083532E-003  0.999673115684394       0.998813099971352       5.802845980500499E-003  0.985676421238463       0.983687786924207       0.991922195133650       0.998050773673129       0.986932233370519      -5.965239463452509E-003  0.988339177160451       9.209186309169885E-003 -5.551197765437234E-004  6.510287815875081E-004
 -5.440957703556483E-003  0.984341855989619        1.00351204522317       0.987216825485822       0.985014331234472       0.997875914436922       0.995844486736060      -1.525486907417635E-003   1.00410586874464        1.00598358957558        1.00184797141278       0.984783475035111       0.982532225148738        1.00093537974572       0.994234848137434       0.986145991363623     
 -4.832204961809508E-003  5.799241502355446E-003  1.599103494750932E-003  7.579492785289535E-003 -7.194688158823971E-003 -1.854085380326695E-003 -1.214469295618429E-004  2.606742617012455E-004  2.125945905321906E-003  0.994799652833473        1.00267810698760       0.995654719029080       0.988343435744999       0.992624653840639       0.981966821805198       0.979811261101087     
  0.982795597302368       3.856708281762438E-003 -5.674149375136965E-003 -7.559448680267074E-003  0.977663557940668       0.989747610562428       5.291316276356904E-003  0.986067146519310       0.990951984492997       0.993763602538824        1.00043815963371       0.999661292738610       3.148619496274195E-003   1.00544489222160        1.00441865922185       0.996644350630365     
  0.998596810469513       6.351788427337250E-003   1.00008812982424        1.00238969708031       1.099988189510236E-002   1.00298283640759        1.00694069322996        1.00467612166550        1.00727643877510       0.990152899373585       0.993254043669789       0.989069237108399       1.595807422827050E-003  7.049749499222854E-003  0.990097801538510       0.985991191770742     
  0.983337830744717       8.998640456380984E-003 -6.194910563375470E-003 -4.023644339096698E-003 -2.570442796009202E-003 -3.866464085536352E-003  0.991434064658917       0.992550486778734       0.980677244850733       0.978483858159682       0.976105416175897       1.085649280234818E-002  0.992077877930297       0.996089318373962       0.995066626709177       0.997133530205702     
  4.894600742106230E-003  1.279976058539082E-002  0.987676809220838       0.987369100538786        1.00330813745645       0.989378141957108       8.923895427632240E-003  0.987418812035103      -4.249412514902892E-003 -8.118082728764239E-003  0.981470838396120       0.980134103491743       1.300124940298915E-002  0.981927073179792       0.977636916518439      -6.215296265575427E-003
  0.985427210315004      -7.596138954179045E-003  1.103874622372035E-002  0.994615689858228      -3.125260029171077E-003  3.679255163569910E-003  0.975349260685964       1.083071735310630E-002 -6.670819696662160E-004  8.224801389414265E-004  1.478869620892174E-002 -9.553937389557790E-004  6.803986101692722E-003  0.978752613598614      -6.368105070408490E-003 -9.085436097168340E-003
  8.820523196460402E-003   1.00564929585407        1.00854276162669       0.979570855984153       0.977119427700175       0.974007668800556       0.984654109057162       0.982511751049462       0.993796598439329      -1.709650073352194E-003  1.274321020867292E-002 -9.878347980203974E-003  0.976718731397829       0.974346804451941       1.512377982200970E-002  4.491181760348227E-003
  8.770551346502987E-003  1.086656660680689E-002  0.972987526498269       0.970595091440996      -8.354201714102722E-003 -1.048141854077199E-002 -1.767688507905150E-005  1.323624844706165E-002  0.983765916370312       0.980931183111348       0.982828628153160       0.980193689475287       0.981015759391093       0.980569378350072        1.00895983225067        1.00568153436452     
 -6.017865128571688E-003  1.015745381849294E-003   1.00220353147804        1.00143768477950       0.984835961182443        1.00433151191484        1.00398098529027       0.971844639809153       1.733722314002209E-002  0.981870065216418       0.983264178988708       1.118185989808426E-002  0.998720023085313       0.989608860327116       0.969262028453801      -3.685285120868053E-003
 -5.177040205528074E-003  0.985682450025904       0.996067536276163       1.548456582983538E-002  0.979514749483199       2.551627479968560E-003  1.690447662147499E-002  1.474615303715445E-002  0.973639638516268        1.00793857506440       0.978735090670597        1.00143571099461        1.00036847227719       0.978360346681779       0.997656575755028       1.354609072204551E-002
 -4.467892263714019E-003 -8.404231753983782E-003 -2.820918621711785E-003 -1.010560857559167E-002 -9.738040954906373E-003  3.454720406690615E-003  0.975765215513172       0.975908887219482       0.973323222665523       1.159563341536295E-002   1.00959057055308       0.970946101924627       0.968480240445691       6.612757725628674E-003  0.971837489471323       0.965993603093874     
  0.963756125786399       8.864628268435006E-003 -7.928879507441412E-003 -1.085325049265976E-002 -1.901862818499271E-003  1.916672779978295E-002  1.698422817321260E-002  0.996536397510197        1.00316449086581      -1.192588986293834E-002  0.983054098187916       0.979879940565129      -9.205836786504256E-004 -7.318181528533187E-003  1.461907748863074E-002   1.00208021567281     
 -1.066268583330737E-002 -1.298501294298636E-002  0.977699824728849       0.977215145669033       8.863978348338353E-003  9.462006604823464E-003  0.987643758505912        1.01106365671724       0.990548879366755       1.581838144076095E-002  1.925241377688005E-003  0.969629977032925       0.967138005141106       0.964503717931435       0.961445377587256       1.780441294798089E-002
  2.524219470937441E-004  0.970610170743277       1.392449958548311E-002  1.966830555336475E-002 -1.227895031708785E-002  0.993453559991462       0.994854475112731       0.997598908172996       6.541393525049471E-003 -6.518079949068043E-003   1.00627943806620        1.00624582768908       0.967761362185273      -5.807915126258761E-003 -4.881228659403835E-003  4.108792075415040E-003
  0.971014088848653       1.276448063175062E-002  0.999295585953757        1.00098667332987       2.153360108574616E-002  1.938094664395076E-002  1.705775541803136E-002 -4.022564944209581E-003  2.210838331335243E-002  0.975061352592217       0.972233629012417      -1.471109341607985E-002  0.988014557386353      -1.061787636260494E-002   1.01069480931825       1.588510822824706E-002
  9.284957438740828E-003  2.024926442644130E-002   1.00488497147869       0.968438446591046       0.965859696265724       0.996227795198562       0.962895279754116       2.391586502852141E-002  6.153094850205936E-003  2.185266392003573E-002   1.00887382899522       6.410379497270101E-003  3.742017737113893E-003  3.411750484394112E-003  1.821622741203495E-002  3.279657259434594E-003
 -8.914259282059751E-003  0.990518303522116       0.985521795109529       0.983499669967446       0.985919036329720       0.987958128770436       0.995234420058391       1.450149345205016E-002 -1.914515194227679E-003  0.966358093124688       2.086565722281234E-002  0.969713154180198       0.991100211551032       0.990116350420019       0.987765187190159       0.985559109199438     
  0.988449035882942       0.989386482563443      -1.230293425293960E-002 -3.085031174675432E-003   1.00042543702911       0.984630820742814       0.968459863077924       0.998171609901063       0.996954473658419       2.625667190850916E-002   1.00833048934065        1.00655768873931        1.01009838657137        1.01179601908437      -1.306998974542730E-002 -1.565804285750918E-002
 -8.506026919490713E-003  1.966998859712397E-002  1.716665499828482E-002  1.442414219353617E-002 -1.011909033664591E-002  0.990836023464976        1.00922399729726       6.185420825655380E-003  0.980631336995329      -7.270055945842709E-003  0.992523183986194       0.993226844032373       0.994377545663414       1.274683506181113E-003  0.972563299421462       1.240768043197093E-002
  1.197910705093429E-002  0.981088872740198       0.970947564070640       0.959586485808368       0.963214964134493       0.960325311069089        1.00435487249314       0.964863372081546       0.968055215901609       0.973925578655005       0.972250976752130       0.975904881492245       0.976818151533006       0.975208135791390       0.973580073515806       0.957336329190865     
  0.954050250004104      -5.405312771228576E-003 -1.286217725647451E-002   1.01230414920291        1.01351127301643       0.982668679081321       0.980106643100845       6.575104135769106E-003  6.650079437451818E-004  6.342101750401879E-004  3.037342271467112E-004 -6.116136290597460E-003   1.01159934434889        1.00730016543559      -1.049844999373819E-002  2.881163545108239E-002
  2.597236182582647E-002 -1.504935614555921E-002  9.103149285633442E-003 -1.553645701930312E-002 -1.845624445896228E-002  0.992264455147005       0.990365386624133      -1.260706116133794E-002 -1.535736569920926E-002  2.700193528939282E-002   1.01119296371025       1.173188728812978E-002  0.986755258798619       0.987343857928578        1.00325002991306        1.00925550524127     
   1.01212343570097       0.987967022501982       0.962027477211047       0.959074945057543       0.955838396609046       0.952299932332898      -3.083763321468563E-003  0.978042795254146       0.985192282352137       0.984607849686483       0.982899163205267        1.00942403504163       0.977784989979252      -1.236960080167415E-002  0.984367161213894       0.967377824665561     
  0.969291430171260       0.970640034262519       0.971810676586352        1.01130909854595        1.01188830467034      -8.900918636690553E-003 -1.799845979841941E-002  0.963625343313830       0.974048320923440       0.971119220328787       6.152413034568283E-003   1.00739807419453      -4.176362444460069E-003 -7.869967944964742E-003   1.01211543218758        1.00440860864829     
   1.00227715919722        1.01308577507281       2.250152506851288E-002  2.969075329670182E-002  2.696059751479903E-002 -9.238702911867085E-003  2.276083352217289E-002  2.456412566238717E-002  2.367860717928227E-002  0.978309685493212       0.976998184809606       3.167571430471619E-003  2.982804947420396E-003  0.999288020695205       9.747291622084986E-003   1.01418455814562     
  0.961085456040609       0.987845227086650       0.993650260837713       0.995501263314511       0.958012696600145      -1.218433999879372E-002 -1.514698444461856E-002  0.964889120059224       0.980504388998593      -1.531258797364784E-002  0.981467082338419       0.984686494468159       0.991067880740140        1.00672487707132       0.973137324158076       0.969303099070964     
  0.966229184150019       0.963935317344170       0.967918487190511        1.01354705829082      -7.344828708623598E-003 -1.091888938954144E-002  1.151357197178961E-002  2.409771105478403E-002  2.006134954111466E-002  1.728858982065424E-002  3.156133493241601E-002  2.912016566848247E-002  2.767532386452887E-002   1.00523759952940       1.433411047175387E-002 -1.593618244699951E-003
 -1.569436580919528E-003   1.01438166331584        1.01669212856873      -1.545348733682442E-002  0.954905007285864       0.951789007318436       3.262825728259681E-002  3.033767551240894E-002  2.807479819228395E-002 -1.245182910584311E-002   1.01406938129913        1.01776078429972       0.975577781861618       0.970120749563510      -5.255913597954950E-003  8.834452152646491E-003
  6.933935950565863E-003 -1.844287435759448E-002   1.01429566670183        1.01538988422103       2.500840955930436E-002  2.158851435083466E-002  0.966196246088798       0.967715286460025       0.969210423438731       0.969396905765968       0.997997518715247        1.00575082517444        1.00848161699507        1.00427733618060      -1.072959638289495E-002 -1.320287979635784E-002
 -1.537400860953035E-002  0.948604901174893      -1.065739634166153E-002 -1.407720698024295E-002  0.975479459118897       0.956392544407718        1.00928509360510        1.01212344187636       0.981413513686159      -1.401663490261779E-002  0.991513586726871      -1.773653016850926E-002 -2.103780191594533E-002  3.555487881095035E-002  3.336542882453322E-002  3.121980436433464E-002
  2.923880929715140E-002  0.972527447965530       0.975333181505487        1.00119663372749       0.999946279222765       2.338322520851154E-002   1.00739854136475       6.111383110282372E-005  5.941082100664316E-003  3.102945117598574E-003  0.966826067590636       0.969212803579529       0.978494206389222       2.477491761478995E-002  1.861071009589923E-002  1.594574318985055E-002
   1.00001840291706        1.00255582856799       0.999103654504698        1.00616173086491        1.01487304490974        1.01507725208808       1.299974214864815E-002   1.00381078782710       3.445566679138293E-002  3.157259579117337E-002  0.953340258313045       0.950082784784220        1.00564227788656       0.946513509662802       3.849689378089631E-002  3.625007498942349E-002
  3.412321954287376E-002   1.00922316686203       0.961139529134101       0.957653678573016       1.910719207859481E-002  0.962769315774152       0.985234603159833       0.977267282237952      -1.674611501943516E-002  0.965722792792193       2.040790220082087E-002  1.737861881910926E-002  0.964476878076925       0.966469430779124      -9.466329191144568E-005 -7.195443113432363E-003
 -1.419571486157517E-002  9.992518959259117E-003  0.964014115333416       0.961805281777962       0.968148554811574      -1.765204599065260E-002  8.530681333180311E-003  0.954857281063337       1.420615048322863E-002  2.240914404402131E-002  2.583937968046246E-002 -1.241769326674389E-002 -1.536582035817009E-002 -1.382198989787781E-002 -1.712642289270715E-002 -1.773315225564764E-002
  0.954872743531322       0.959047293003010      -2.173603261700902E-002  4.154200800537689E-002  3.912107288290026E-002  3.676488091328047E-002  3.496868789116143E-002  6.938970750344672E-003   1.01261859893052        1.01719889125246        1.01914788913438        1.00997482370507        1.01687890937441       0.971909294796470       0.975313416135407       0.960844670153255     
 -2.407532173540097E-003  3.759094289133702E-002  3.482533838757651E-002  3.180018346408830E-002  0.952003988409609       0.948232502248900       2.378256635043597E-002  0.996921022801439       4.388209880094480E-003  4.065183040911577E-003 -1.798680819947626E-002 -1.576281052091816E-002 -1.762383511083212E-002  0.962828123034892       0.958931619163492       0.978359588532332     
  5.827179002057943E-003  3.703113118112353E-003  1.329869360430033E-002  1.120726860794829E-002  0.943682365007095       0.948723633341448      -1.851537124473156E-002 -1.845953435739718E-002 -1.773055163540979E-002 -2.151535534772616E-002  0.965143712854398       4.474484261703270E-002  4.227606685862724E-002  3.932612814013548E-002  1.974479211836972E-002  0.954411735712763     
  0.957837053569933       0.960011029053420       0.950868392479291       0.956571851832550       0.953008633012093       0.949390862060633       7.848459011020922E-003 -1.226316224471041E-002  0.997948214302973       0.974612027168676       0.973400726540502      -2.031876494537468E-002 -2.030468828736962E-002  0.970908431585006       1.631096723790848E-002  1.464476040110358E-003
  0.981617492817326       0.984665242260170       1.679762839932507E-002  2.065286474815967E-002  1.745502608393378E-002  1.408732546787260E-002  4.083088694322250E-002  3.818729782218159E-002  0.978943842736006       0.973727798577878       1.014113566643223E-002  6.822139454000112E-003  0.945270474069251       0.941768069842450       9.939096615383903E-004  1.080296911557068E-002
   1.01446170347337       0.961043840346729       0.956918895445938      -1.925524754325309E-002 -2.148397239721060E-002  0.938166328217526       0.934513293582374       2.334889144254155E-002  0.947327336110869       3.533064173977392E-002  3.215071073385808E-002  2.715124311263169E-002  4.807071890223178E-002  4.566501614204926E-002  4.320264740704201E-002  4.112424946176907E-002
 -5.651651012204880E-004  0.987878156889441       0.991109131959161       0.955245393560955       3.801512190137450E-003 -1.930751824204259E-003   1.01442413772707       2.410726203538861E-002  4.411660388082612E-002  4.151413052133245E-002  3.899706581158597E-002  2.049445074878369E-002  7.011432553028458E-003  1.363029444921402E-002  0.943811313018759       0.940218328253876     
  0.942712150027769       0.987839121167846       0.994308901832477       0.994375007173176       0.945758814315736      -2.180880616887851E-003  0.958856240849783       0.951496649101248       0.947720570573112       0.988912248164665       0.992599209616656       0.938621467494490        1.01098077168484       0.991114203294191       0.934824973547671       0.956939869470370     
  0.954930513546275       0.952785101204898       0.971951584989389       0.945869401730005       0.957694955584054       1.026729444966586E-002  6.652468345003140E-003   1.01673864660590        1.01532616409406        1.01676145449725        1.01899140424125       8.810181915628238E-004 -1.354454213420920E-003  1.044933575944723E-002  4.748054786927389E-002  4.472326963728219E-002
  4.217766322568550E-002  4.069790410045105E-002  0.950590432362061       0.946477576815180       0.930822133560058       2.091920448309427E-002  1.758126842140918E-002  2.659386961527905E-002  0.989855984898711       0.978597924584097       0.982472947812236       0.986206314941374       0.975313213540989       0.975303870017896       5.150147732750219E-002  4.905749512636930E-002
  4.658428603776649E-002  4.420261323411187E-002  4.111114780151239E-002  0.953763882729381       0.956170976346315       1.407167319534739E-002  1.735266460041992E-002  0.961733512678670       0.993527764464202       0.964259535300234       0.960234175140208       0.966815243115206       0.940235630673322       0.998391520961887        1.00138824883640       0.994510837167390     
  0.942420289008255       0.938725012565864        1.00220773404714       0.948959425435244       1.399625270876375E-002   1.01790304292855       2.821140986560509E-002  3.225328200415035E-003  0.936461308804449       0.952902286029729        1.00063132715410        1.00338497871504        1.00651146550365       0.967717835887680       0.945081675903636       0.949781778575491     
  0.945218480143824       6.442192446408639E-003  5.099898855334007E-002  4.809479512159002E-002  4.490381778723000E-002 -9.327884428353590E-003 -1.241249351090121E-002 -1.581631780841619E-002 -5.625532577969662E-003 -7.986173448698269E-003 -3.692448419242242E-003  0.987700239966432       0.979747879243234       0.999730891357860       0.944526219997268       0.936829884412997     
  0.932814275542353       2.464105725737384E-002  2.856029954267978E-002  2.445619262540442E-002  0.997204922664034       0.998547856538366       0.991078520331441        1.01828120975061        1.02034614174248       0.990673107341354       0.996189335163743       0.997313985734503       0.994448616697716       0.984478089692185       0.963365701953943       1.042219418060455E-002
  6.578795812310557E-003  0.934674096472481       0.950992041325233       0.948657812361773       3.211631354866534E-002  3.101922100108160E-002  2.903485965832987E-002  0.942243856314554       0.947589292194054       0.944175431855121       5.506061938042148E-002  5.253992829382469E-002  4.993280348304916E-002  0.983547860682327       0.987100793618788       0.987600947769850     