 VARIABLES = "X" "Y" "RO" "U" "V" "P" "M"
 ZONE T="  0.000000000000000E+000 " N=        9944  E=       19548
 ZONETYPE=FETRIANGLE DATAPACKING=BLOCK
 VARLOCATION=([3-7]=CELLCENTERED)
  -19.9782054645671       -16.7460447536127       -13.5432470514743       -10.4462771124608       -7.39483127129757       -4.39431260318683       -1.43672854734527        1.47853524247441        4.40194279230921        7.38347804238703        10.4122197804982        13.5308676756442        16.7310607632789        20.0189460056259        20.0156650185539        20.0123451374732     
   20.0090067226427        20.0056742799471        20.0022854763303        19.9988742323503        19.9954939648514        19.9920871178897        19.9886881104951        19.9853470049941        19.9820070605281        19.9783478910574        16.7317203104092        13.4557822172063        10.1645634122701        6.87452312340184        3.53259687976399       0.170578499054329     
  -3.16443525887912       -6.48474521199279       -9.79114624567630       -13.0836966857758       -16.3754018560739       -20.0188035791356       -20.0155069002833       -20.0121812769038       -20.0088400757232       -20.0054989473046       -20.0021446450312       -19.9987763328347       -19.9953939522161       -19.9920253568386       -19.9886729196427       -19.9853365630757     
  -19.9819979716434       0.999782449138369       0.998265996256378       0.996753934178579       0.995252087203455       0.993705662861826       0.992098325433415       0.990425226436406       0.988690841260471       0.986895051089603       0.985035525386717       0.983098261332880       0.981091795301065       0.978999937105667       0.976835361013000       0.974594208066666     
  0.972269067870576       0.969857386667624       0.967358339961643       0.964769606561522       0.962091544450481       0.959319171019790       0.956444674323218       0.953456935115949       0.950346532852947       0.947142185452350       0.943822217103563       0.940354052048747       0.936780066007794       0.933088133412031       0.929256777726712       0.925251067744832     
  0.921101635249687       0.916803213438708       0.912341900238989       0.907708703373553       0.902897155755674       0.897900713630739       0.892706776666587       0.887302562723933       0.881680385321274       0.875832453993566       0.869759884496288       0.863455422077662       0.856911092908152       0.850116856356040       0.843063823300524       0.835743481256975     
  0.828149425330745       0.820273201867751       0.812106519448414       0.803640970780130       0.794867690045086       0.785779004813295       0.776365991765879       0.766504470473719       0.756283357780705       0.745691225830500       0.734717398638954       0.723354860506932       0.711591236167005       0.699413874939450       0.686815510755125       0.673784373097705     
  0.660306535946386       0.646374597545876       0.631975050221673       0.617091187792739       0.601711871896127       0.585816441807391       0.569392385575382       0.552424189543387       0.535501084150700       0.518540888921873       0.501511316638993       0.484412419970711       0.467243779107729       0.449355608945044       0.432063918362583       0.415367141346732     
  0.399263578043326       0.383737273638814       0.368703509869150       0.354143930129483       0.340054470273903       0.326443976996165       0.313297446590844       0.300615942457074       0.288400419557642       0.276632595242834       0.265287421823595       0.254317402616547       0.243709918888287       0.233452576977156       0.223538120303329       0.213958454067680     
  0.204701895022707       0.195757199630080       0.187119770370203       0.178773342908813       0.170708225752509       0.162907397521771       0.155364024977966       0.148071718759299       0.141024382158646       0.134215803624905       0.127639088393436       0.121288669648662       0.115159342358492       0.109245802540837       0.103543519998017       9.804812729241438E-002
  9.275544646954360E-002  8.766200381312070E-002  8.276408028797053E-002  7.805792892509562E-002  7.362181561428624E-002  6.934859035480047E-002  6.523993622127251E-002  6.129411781080453E-002  5.751127896758985E-002  5.386935054633449E-002  5.038001486526796E-002  4.704118636874254E-002  4.383510322863830E-002  4.073249438801368E-002  3.773022504211174E-002  3.480537193751930E-002
  3.195824531799384E-002  2.919389096812969E-002  2.651511018682419E-002  2.392583049257775E-002  2.143214408751896E-002  1.904166579935951E-002  1.687351989807554E-002  1.478525722457343E-002  1.279658037082024E-002  1.092641710990712E-002  9.199645297979172E-003  7.550984983148493E-003  5.943450321315018E-003  4.480181401976402E-003  3.151722273129832E-003  1.995575996628409E-003
  1.071535433830115E-003  4.480726112953931E-004  1.419690233530855E-004  7.251695387688883E-005  3.163723302739336E-004  9.182158214571232E-004  1.830457389836312E-003  2.964636923802330E-003  4.249799585769046E-003  5.631497041134051E-003  7.304098148304370E-003  9.065764257624280E-003  1.093148315991789E-002  1.281580169104444E-002  1.474788310041705E-002  1.677515390673042E-002
  1.894784177002716E-002  2.123259472727639E-002  2.363922082679856E-002  2.610853323203779E-002  2.864797536233825E-002  3.130127806564703E-002  3.410781158626008E-002  3.706510657343005E-002  4.016278782922460E-002  4.338894073863385E-002  4.673278314268581E-002  5.018251162579081E-002  5.373473940175917E-002  5.738932701093240E-002  6.113895963287160E-002  6.534286530410591E-002
  6.969247355986349E-002  7.418523691684789E-002  7.881805287047296E-002  8.352241015693275E-002  8.836732472198691E-002  9.337903769941677E-002  9.855549832264286E-002  0.103898829149933       0.109399350461790       0.115076498042196       0.120971238729533       0.127133274251916       0.133575660706827       0.140301645826964       0.147307812766968       0.154595448725171     
  0.162167711263108       0.170025681201296       0.178173370499118       0.186614318021366       0.195353029726463       0.204574653384415       0.214137666420010       0.224047864351744       0.234314365622799       0.244945496166265       0.255948447458377       0.267333632987106       0.279111868141754       0.291290727050608       0.303881086082459       0.316895327861465     
  0.330341008061083       0.344228108146400       0.358570113517574       0.373367380929477       0.388630632532814       0.404366025752542       0.420559121320642       0.437220318367856       0.454292238550288       0.471766663344454       0.489317379887725       0.506737543381343       0.524025425934703       0.541183419662193       0.558215243083298       0.574802771378806     
  0.590922410039664       0.606554463368340       0.621697852717233       0.636354650479033       0.650488934373579       0.664112080429314       0.677239341812333       0.689888591228644       0.702080085122459       0.713865135308144       0.725285503533349       0.736349179869224       0.747064398962685       0.757433291212556       0.767464206651567       0.777165906779623     
  0.786547139583148       0.795529892727020       0.804183228049644       0.812511933948636       0.820521872959831       0.828217666313168       0.835603627542746       0.842686981549753       0.849530312790044       0.856163520430349       0.862589689765555       0.868812603081076       0.874836126430890       0.880664248705206       0.886300258078848       0.891747263101074     
  0.897008710648733       0.902088951438112       0.906995718355288       0.911733556108488       0.916306966217933       0.920526579404281       0.924630309214859       0.928616272823554       0.932487357061454       0.936228609963434       0.939837024415135       0.943318965715927       0.946666674932047       0.949883770289982       0.952985609423617       0.955948085633467     
  0.958777861945007       0.961531398114372       0.964205641855106       0.966798756199380       0.969309490590984       0.971737269464350       0.974083273277572       0.976348550781113       0.978536424050250       0.980650804905540       0.982643467838352       0.984581662139003       0.986450705164796       0.988255353192482       0.989999579258293       0.991684683714757     
  0.993306217733840       0.994865456192275       0.996364918125805       0.997860547642827      -1.144922802588150E-003 -9.298687591255173E-004 -1.106007776614471E-003  0.996030165031967       0.997471074189720       0.996024496068258       0.997250796747174      -2.572653655233875E-003 -4.485965299747036E-004  0.995686337203665       0.996465168305510      -2.102193456198626E-003
  0.994641128514610      -2.448724900100275E-003  0.994139636628993       0.992480496505357      -7.669083426745336E-004  0.992923342906936       0.993905575331494      -2.509053250031027E-003 -4.038826650161035E-003  0.994991904738255       0.995151695622467       0.998890950428600      -1.476196491948595E-003  3.215969281016819E-004  0.991175928187794       0.989408561685676     
  0.987637303260628       0.992020060225645       0.998197583931057       0.993474607415322       0.991262381949780      -4.220759821606062E-006 -2.185933970041810E-003 -4.142855035267615E-003  0.992908516495192       0.997444883668486        1.00054072691401       0.998182650432278        1.00122404901342      -3.401281880689329E-003  1.366018387536933E-003  0.996570795295755     
  0.996989750487701       0.999543958797263       0.989531393594776       0.990192883665524       0.988344399122298       0.986433535476517       0.990992862938105       0.992771234400554       1.076922309962662E-003 -8.939475907567235E-004  3.706597682162384E-003   1.00232836318260       0.990517369590592      -5.485222472866638E-003  2.650801027096974E-003  0.991029117876411     
  0.987644649365859       0.989036793592026       2.309957089352558E-003 -4.218667843783549E-003  0.991770801863756       0.999959982627011       0.999401706075168       4.142471736055840E-003  0.989200686226168      -2.622096930279742E-003 -3.861319948170018E-003   1.00324030232969        1.00130119020805       0.994916933761664       0.999048692822909        1.00112191878757     
  0.993812859736428       7.524504693487526E-003 -2.642579673776445E-003  0.999673264683090       0.998813246945403       5.802944201382831E-003  0.985676558589686       0.983687922998183       0.991922336957103       0.998050919368177       0.986932371865857      -5.965285930188411E-003  0.988339316756315       9.209319067406449E-003 -5.550941116528209E-004  6.510749209718167E-004
 -5.440967295683578E-003  0.984342028801478        1.00351219618763       0.987216995434213       0.985014504422319       0.997876076534696       0.995844649995968      -1.525450772382662E-003   1.00410602109001        1.00598374186102        1.00184812716532       0.984783612201735       0.982532360987585        1.00093552821111       0.994234991659893       0.986146129708053     
 -4.832196564035223E-003  5.799351789236644E-003  1.598987623099512E-003  7.579618253087100E-003 -7.194686986395552E-003 -1.854179679816398E-003 -1.213904663328747E-004  2.605697042103510E-004  2.126012981011925E-003  0.994799818248005        1.00267825666478       0.995654863133918       0.988343605417358       0.992624820996236       0.981966999123467       0.979811441894973     
  0.982795774425086       3.856796857432746E-003 -5.674175456867675E-003 -7.559482464813269E-003  0.977663742469793       0.989747751026682       5.291181781897162E-003  0.986067316229883       0.990952125551545       0.993763770584790        1.00043830682715       0.999661438687303       3.148493411872631E-003   1.00544504614180        1.00441881508731       0.996644514789359     
  0.998596974462220       6.351914448180602E-003   1.00008829069798        1.00238985706019       1.100003241552822E-002   1.00298298520445        1.00694084937397        1.00467627201040        1.00727659000696       0.990153068606700       0.993254186170893       0.989069377251067       1.595885103192658E-003  7.049606366694734E-003  0.990097969116486       0.985991364963776     
  0.983338008379125       8.998780654326199E-003 -6.194970507748501E-003 -4.023728830439014E-003 -2.570396099121199E-003 -3.866436798933210E-003  0.991434234811783       0.992550657745191       0.980677424894329       0.978484041472048       0.976105603467027       1.085633534977633E-002  0.992078019568982       0.996089484522858       0.995066795727217       0.997133674701115     
  4.894465307837741E-003  1.279959765600650E-002  0.987676948659458       0.987369239898388        1.00330829560521       0.989378314034373       8.923744606212650E-003  0.987418985289305      -4.249486677910475E-003 -8.118130648090848E-003  0.981471018073890       0.980134237899876       1.300141875498643E-002  0.981927208321792       0.977637049807577      -6.215368420380181E-003
  0.985427348507691      -7.596155286918511E-003  1.103890671218682E-002  0.994615832900870      -3.125355848947875E-003  3.679355462564940E-003  0.975349393160789       1.083055953150744E-002 -6.671879807672559E-004  8.223631151792925E-004  1.478852835096313E-002 -9.553268332189083E-004  6.803842095162049E-003  0.978752747633240      -6.368085270456748E-003 -9.085422580052932E-003
  8.820371544518693E-003   1.00564945397663        1.00854292006620       0.979571038065869       0.977119613710906       0.974007861807448       0.984654286029000       0.982511930846290       0.993796770439600      -1.709757406559825E-003  1.274304778864365E-002 -9.878370722914198E-003  0.976718864762705       0.974346937010300       1.512396720591049E-002  4.491045214004712E-003
  8.770702632830791E-003  1.086640829928501E-002  0.972987658223665       0.970595222504062      -8.354261928041468E-003 -1.048146733751811E-002 -1.779501343041539E-005  1.323642776675714E-002  0.983766053351112       0.980931318396925       0.982828764835082       0.980193824829304       0.981015940350788       0.980569561218689        1.00895998540870        1.00568168402197     
 -6.017948202634288E-003  1.015834346986302E-003   1.00220367889053        1.00143783091094       0.984836099063071        1.00433167138875        1.00398114648596       0.971844771597863       1.733742780776479E-002  0.981870201573716       0.983264316169449       1.118203158777389E-002  0.998720167855127       0.989609000679309       0.969262159553390      -3.685227704785482E-003
 -5.177001809513557E-003  0.985682626664182       0.996067679684953       1.548476202413568E-002  0.979514884799451       2.551500314724990E-003  1.690430391870610E-002  1.474598577877531E-002  0.973639830747786        1.00793872959695       0.978735275061609        1.00143587339987        1.00036863781369       0.978360480926903       0.997656743005277       1.354627985723242E-002
 -4.467989254820425E-003 -8.404302666935429E-003 -2.821026937995181E-003 -1.010564446253094E-002 -9.738047119101754E-003  3.454834739349467E-003  0.975765403164855       0.975909020647207       0.973323355253362       1.159581636360509E-002   1.00959072705954       0.970946299804039       0.968480442934094       6.612612563730715E-003  0.971837686468923       0.965993810456851     
  0.963756337113622       8.864791497451358E-003 -7.928847792231056E-003 -1.085322380776161E-002 -1.901785024035665E-003  1.916655046746098E-002  1.698405606525490E-002  0.996536567617429        1.00316465496514      -1.192591705125342E-002  0.983054278415438       0.979880126737508      -9.207027939778362E-004 -7.318268096493981E-003  1.461891075145468E-002   1.00208038262250     
 -1.066274645929529E-002 -1.298506299654081E-002  0.977699959139098       0.977215280092832       8.863825326714852E-003  9.461851499741089E-003  0.987643897801572        1.01106381468169       0.990549020073502       1.581858486071054E-002  1.925113077036735E-003  0.969630177697345       0.967138210178135       0.964503927596539       0.961445593590314       1.780462557393607E-002
  2.525254096005317E-004  0.970610302551211       1.392469601667680E-002  1.966852776763499E-002 -1.227896453703042E-002  0.993453702109502       0.994854617517389       0.997599051860004       6.541247259280643E-003 -6.518030433967557E-003   1.00627959813806        1.00624599070400       0.967761493252354      -5.808013308921542E-003 -4.881160288993098E-003  4.108654362854382E-003
  0.971014287953746       1.276467674074690E-002  0.999295754387044        1.00098684295576       2.153341947950669E-002  1.938076989621172E-002  1.705758388322289E-002 -4.022673958751010E-003  2.210862339662287E-002  0.975061486024605       0.972233761582884      -1.471111714761772E-002  0.988014696613020      -1.061794691197127E-002   1.01069496433314       1.588531784350393E-002
  9.285132078873456E-003  2.024949463428234E-002   1.00488513712184       0.968438649812198       0.965859903355788       0.996227937856605       0.962895492866067       2.391567979938428E-002  6.153235283808779E-003  2.185248285700116E-002   1.00887399014522       6.410232568001595E-003  3.741878880049513E-003  3.411610473933085E-003  1.821644749925512E-002  3.279785740010218E-003
 -8.914348297663540E-003  0.990518443936660       0.985521933279359       0.983499807326257       0.985919174647954       0.987958267835059       0.995234593162917       1.450132744971563E-002 -1.914635331629690E-003  0.966358223506167       2.086589518002176E-002  0.969713356091457       0.991100385594479       0.990116523318422       0.987765361943282       0.985559288064542     
  0.988449212067296       0.989386660094839      -1.230292636997877E-002 -3.084942269319497E-003   1.00042558201253       0.984630958370085       0.968459993685310       0.998171781075977       0.996954647889958       2.625648358776696E-002   1.00833063975538        1.00655783778551        1.01009853863171        1.01179617284952      -1.307005108956614E-002 -1.565809472209424E-002
 -8.506104626557136E-003  1.966981239711272E-002  1.716648419796463E-002  1.442397704037846E-002 -1.011916910569382E-002  0.990836163573690        1.00922416083614       6.185574859411552E-003  0.980631472998493      -7.270155110012231E-003  0.992523325450331       0.993226985471442       0.994377687049742       1.274553976978052E-003  0.972563496644106       1.240751856283859E-002
  1.197894603985521E-002  0.981089008848151       0.970947764645599       0.959586706903343       0.963215093924484       0.960325440443990        1.00435502102908       0.964863502436313       0.968055420502506       0.973925774236979       0.972251176347476       0.975905071407922       0.976818341936559       0.975208330501559       0.973580272748958       0.957336458175201     
  0.954050378599887      -5.405422044668449E-003 -1.286224756806535E-002   1.01230430601712        1.01351143159017       0.982668862061630       0.980106830856591       6.575271306338890E-003  6.651261524166149E-004  6.340789833312907E-004  3.036012114247827E-004 -6.116057344546038E-003   1.01159950643525        1.00730033032196      -1.049854074763899E-002  2.881144345375550E-002
  2.597217546061407E-002 -1.504935842357322E-002  9.102995060172436E-003 -1.553651960560934E-002 -1.845629922881041E-002  0.992264630415358       0.990365565563535      -1.260709840512238E-002 -1.535740435687153E-002  2.700220656719273E-002   1.01119311482684       1.173172726211865E-002  0.986755438678563       0.987344038851799        1.00325017616173        1.00925565490308     
   1.01212358594141       0.987967205533102       0.962027607043860       0.959075074391619       0.955838525445710       0.952300060649405      -3.083885103673939E-003  0.978042930026294       0.985192464400541       0.984608031348186       0.982899347288449        1.00942420035382       0.977785180596934      -1.236968113564992E-002  0.984367346136323       0.967378029635657     
  0.969291634022553       0.970640237488833       0.971810879321840        1.01130925827659        1.01188846865583      -8.901018455672182E-003 -1.799847053491906E-002  0.963625473554575       0.974048454271708       0.971119352815262       6.152265492253271E-003   1.00739822259280      -4.176264806892475E-003 -7.869907701907833E-003   1.01211559818473        1.00440875626801     
   1.00227730432028        1.01308592784793       2.250134432624816E-002  2.969104441391594E-002  2.696087142112434E-002 -9.238632556750387E-003  2.276108096439594E-002  2.456438216425071E-002  2.367886177261539E-002  0.978309820430305       0.976998378915421       3.167430124198904E-003  2.982949806923907E-003  0.999288164604400       9.747476835744248E-003   1.01418471906000     
  0.961085585811674       0.987845365767754       0.993650437472865       0.995501441895359       0.958012921129716      -1.218443216532162E-002 -1.514697231083585E-002  0.964889329480028       0.980504578408831      -1.531265800364853E-002  0.981467218394173       0.984686631636507       0.991068020381884        1.00672504368326       0.973137457383460       0.969303230814620     
  0.966229315027657       0.963935447781644       0.967918618764544        1.01354721359963      -7.344739762005661E-003 -1.091883613557543E-002  1.151341270805190E-002  2.409752680106132E-002  2.006117409388107E-002  1.728841979980531E-002  3.156113988709255E-002  2.911997438916336E-002  2.767513703292203E-002   1.00523774579837       1.433394597120382E-002 -1.593512932074999E-003
 -1.569316894491339E-003   1.01438181747700        1.01669228409207      -1.545356476685961E-002  0.954905238271320       0.951789244676344       3.262856765313008E-002  3.033797410783682E-002  2.807508540710368E-002 -1.245176602246883E-002   1.01406954414246        1.01776094696560       0.975577915771294       0.970120881847607      -5.255808566396294E-003  8.834298350693904E-003
  6.934112551148081E-003 -1.844291432087837E-002   1.01429581845333        1.01539003519525       2.500866949452640E-002  2.158876046768284E-002  0.966196454503019       0.967715493573633       0.969210629378399       0.969397113131791       0.997997661539617        1.00575097239813        1.00848176466476        1.00427748135519      -1.072969705593576E-002 -1.320296512564964E-002
 -1.537409362826175E-002  0.948605145393016      -1.065731675832582E-002 -1.407713414407110E-002  0.975479593069290       0.956392772481140        1.00928526101789        1.01212360972075       0.981413705525299      -1.401658766519534E-002  0.991513767780237      -1.773652226305248E-002 -2.103780007423937E-002  3.555520622886019E-002  3.336574488474008E-002  3.122011043178906E-002
  2.923910681815699E-002  0.972527580989103       0.975333315425157        1.00119677778274       0.999946422122571       2.338304504873764E-002   1.00739868749010       6.097910904772892E-005  5.940933932470019E-003  3.102802134815501E-003  0.966826198852004       0.969212935523778       0.978494341364558       2.477518255736310E-002  1.861093809729775E-002  1.594596082948743E-002
   1.00001857506243        1.00255599915681       0.999103830015554        1.00616187606326        1.01487320946866        1.01507741893532       1.299994824968601E-002   1.00381095610824       3.445546874047634E-002  3.157240231724229E-002  0.953340491999972       0.950083025018183        1.00564244788176       0.946513757128503       3.849723740660337E-002  3.625040624424442E-002
  3.412354022464715E-002   1.00922331271795       0.961139747066597       0.957653904121895       1.910742862400075E-002  0.962769530754495       0.985234791477799       0.977267479350055      -1.674609316724586E-002  0.965722923698349       2.040772745399275E-002  1.737844932079326E-002  0.964477090693554       0.966469641105601      -9.479934132678141E-005 -7.195552040932570E-003
 -1.419580917852494E-002  9.992714023500110E-003  0.964014245810615       0.961805411693268       0.968148686270862      -1.765207356164910E-002  8.530527945772465E-003  0.954857511898713       1.420598627238818E-002  2.240939982702772E-002  2.583965645557354E-002 -1.241765565862933E-002 -1.536578681286743E-002 -1.382196668921356E-002 -1.712638098362470E-002 -1.773322164250149E-002
  0.954872974444910       0.959047515445202      -2.173607455291725E-002  4.154236874373962E-002  3.912141899257987E-002  3.676521494746508E-002  3.496901398112105E-002  6.939156337043054E-003   1.01261874809002        1.01719904342374        1.01914804092817        1.00997497277954        1.01687905940504       0.971909427480949       0.975313549933068       0.960844889802525     
 -2.407659728307472E-003  3.759074190731226E-002  3.482514179524969E-002  3.179999194380586E-002  0.952004224428531       0.948232745663329       2.378238668058905E-002  0.996921164695746       4.388373485952644E-003  4.065352551548279E-003 -1.798677676721612E-002 -1.576275356431233E-002 -1.762376825491490E-002  0.962828340254103       0.958931843804101       0.978359775033731     
  5.827030137355116E-003  3.702967563817056E-003  1.329890869777318E-002  1.120710976705362E-002  0.943682618570567       0.948723761080901      -1.851544609865340E-002 -1.845961924489783E-002 -1.773061596128688E-002 -2.151541397874624E-002  0.965143927982851       4.474522125775536E-002  4.227643190425675E-002  3.932647796571279E-002  1.974503781255082E-002  0.954411864260600     
  0.957837182737602       0.960011158635965       0.950868520361746       0.956571980705691       0.953008761130300       0.949390989403442       7.848305941477075E-003 -1.226307657737206E-002  0.997948355721635       0.974612226600453       0.973400928538521      -2.031872825621853E-002 -2.030466735752568E-002  0.970908563649183       1.631119331967060E-002  1.464629476585980E-003
  0.981617628669294       0.984665379015729       1.679786352181915E-002  2.065269036614810E-002  1.745485680243180E-002  1.408716125250347E-002  4.083068323791943E-002  3.818709801415526E-002  0.978943977717665       0.973727931267824       1.014134018170190E-002  6.822334092436932E-003  0.945270601249827       0.941768196380004       9.940717341416548E-004  1.080281033165887E-002
   1.01446187301454       0.961044062692563       0.956919125092451      -1.925519597218238E-002 -2.148391005316943E-002  0.938166453972038       0.934513418415761       2.334915756997522E-002  0.947327463311131       3.533044645970676E-002  3.215052065621783E-002  2.715153080919557E-002  4.807111473011066E-002  4.566539866195614E-002  4.320301780210218E-002  4.112461044847906E-002
 -5.653017270673111E-004  0.987878295050887       0.991109271033941       0.955245521990531       3.801689191709404E-003 -1.930611369845771E-003   1.01442428628908       2.410708282195785E-002  4.411639778698898E-002  4.151392794086116E-002  3.899686670401412E-002  2.049470614191292E-002  7.011279694409265E-003  1.363051903604683E-002  0.943811439536621       0.940218453993818     
  0.942712406164479       0.987839258803023       0.994309042441634       0.994375147042140       0.945759064042704      -2.180725746936495E-003  0.958856370154924       0.951496776671645       0.947720697288435       0.988912434013301       0.992599393366854       0.938621732508588        1.01098091906900       0.991114341765645       0.934825246047240       0.956940096843141     
  0.954930745874831       0.952785338009372       0.971951790822635       0.945869528315436       0.957695084372564       1.026750900747829E-002  6.652673541054329E-003   1.01673880008758        1.01532632129271        1.01676161396587        1.01899156218730       8.811883194974632E-004 -1.354283075481062E-003  1.044917686341250E-002  4.748033954206766E-002  4.472306492569199E-002
  4.217746130095864E-002  4.069770528274151E-002  0.950590671697949       0.946477823685899       0.930822414179427       2.091903041789049E-002  1.758109915972071E-002  2.659368610901285E-002  0.989856173363825       0.978598122377879       0.982473141584166       0.986206505733422       0.975313414794946       0.975304073483814       5.150189017701806E-002  4.905789377814988E-002
  4.658467217825179E-002  4.420298850866718E-002  4.111150749099102E-002  0.953764010566246       0.956171104480306       1.407150879300665E-002  1.735290949326194E-002  0.961733642647391       0.993527950855070       0.964259665643580       0.960234304333939       0.966815373906530       0.940235892101236       0.998391699442344        1.00138842562827       0.994510976434265     
  0.942420414863816       0.938725137426071        1.00220787695884       0.948959668070220       1.399648751190244E-002   1.01790319192384       2.821122556940693E-002  3.225512917935618E-003  0.936461433605255       0.952902521603264        1.00063146862124        1.00338512293596        1.00651160998974       0.967718048996255       0.945081925031503       0.949781905501808     
  0.945218605954440       6.442039505266766E-003  5.099877803801219E-002  4.809458819460436E-002  4.490361441513321E-002 -9.327992336389023E-003 -1.241259493299497E-002 -1.581641475061422E-002 -5.625651016424333E-003 -7.986289125567654E-003 -3.692575511946752E-003  0.987700376995233       0.979748077970800       0.999731071600116       0.944526346053375       0.936830151750837     
  0.932814550698909       2.464087878853733E-002  2.856011684448000E-002  2.445646926916295E-002  0.997205063050505       0.998547996612979       0.991078658157488        1.01828137517336        1.02034629503243       0.990673298241454       0.996189516898435       0.997314170312668       0.994448805907298       0.984478225969560       0.963365922315265       1.042241956631533E-002
  6.579012557916483E-003  0.934674220109476       0.950992280935726       0.948658055795885       3.211662481032963E-002  3.101952888509480E-002  2.903516187159625E-002  0.942244111710685       0.947589537037605       0.944175683106903       5.506104954600242E-002  5.254034362136880E-002  4.993320417828921E-002  0.983548055953414       0.987100986553109       0.987601142727023     