 VARIABLES = "X" "Y" "RO" "U" "V" "P" "M"
 ZONE T="  0.000000000000000E+000 " N=        9944  E=       19548
 ZONETYPE=FETRIANGLE DATAPACKING=BLOCK
 VARLOCATION=([3-7]=CELLCENTERED)
  -19.9782054645671       -16.7460447536127       -13.5432470514743       -10.4462771124608       -7.39483127129757       -4.39431260318683       -1.43672854734527        1.47853524247441        4.40194279230921        7.38347804238703        10.4122197804982        13.5308676756442        16.7310607632789        20.0189460056259        20.0156650185539        20.0123451374732     
   20.0090067226427        20.0056742799471        20.0022854763303        19.9988742323503        19.9954939648514        19.9920871178897        19.9886881104951        19.9853470049941        19.9820070605281        19.9783478910574        16.7317203104092        13.4557822172063        10.1645634122701        6.87452312340184        3.53259687976399       0.170578499054329     
  -3.16443525887912       -6.48474521199279       -9.79114624567630       -13.0836966857758       -16.3754018560739       -20.0188035791356       -20.0155069002833       -20.0121812769038       -20.0088400757232       -20.0054989473046       -20.0021446450312       -19.9987763328347       -19.9953939522161       -19.9920253568386       -19.9886729196427       -19.9853365630757     
  -19.9819979716434       0.999607904335250       0.998090040812463       0.996576615768878       0.995073457398002       0.993525726020310       0.991917075631872       0.990242658105704       0.988506956554718       0.986709855901839       0.984849027628966       0.982910463289798       0.980902709113095       0.978809568632246       0.976643727761543       0.974401328359223     
  0.972074958993666       0.969662067556310       0.967161831742134       0.964571931439168       0.961892726508714       0.959119233568631       0.956243638791359       0.953254820056571       0.950143354909217       0.946937971592913       0.943616987305555       0.940147817510280       0.936572851022453       0.932879959100568       0.929047660715575       0.925041018599261     
  0.920890674711304       0.916591364243863       0.912129186533861       0.907495153182889       0.902682802872958       0.897685599055278       0.892490949332192       0.887086081409443       0.881463321106200       0.875614891812094       0.869541925050064       0.863237181988597       0.856692705514588       0.849898472259897       0.842845610652959       0.835525625523790     
  0.827932128393061       0.820056680828933       0.811891004898895       0.803426704595113       0.794654922779920       0.785567992352970       0.776156991960685       0.766297767038231       0.756079208385887       0.745489877622138       0.734519082689839       0.723159785002266       0.711399581822040       0.699225788795701       0.686631098084516       0.673603692135107     
  0.660129591923702       0.646201334523704       0.631805346844822       0.616924852529118       0.601548637045538       0.585655961773357       0.569234232923429       0.552267855162181       0.535345947689731       0.518386324938119       0.501356694148901       0.484257109801392       0.467087163829713       0.449197009752442       0.431902835146071       0.415203175042913     
  0.399096425539686       0.383566717732675       0.368529393678312       0.353966161862465       0.339873019641842       0.326258872029158       0.313108760618449       0.300423791844862       0.288204957401865       0.276434000220700       0.265085891283108       0.254113142947248       0.243503151392980       0.233243534871715       0.223327047096842       0.213745600785669     
  0.204487517377919       0.195541556421160       0.186903122786182       0.178555951822953       0.170490351734646       0.162689299983229       0.155145962405585       0.147853948025853       0.140807157904550       0.133999377761659       0.127423709847122       0.121074583912862       0.114946791116716       0.109035023434910       0.103334746167744       9.784158703950076E-002
  9.255136291192022E-002  8.746059423782243E-002  8.256555589902842E-002  7.786249453422420E-002  7.342960666005184E-002  6.915980339214868E-002  6.505475963719178E-002  6.111273361640247E-002  5.733386011641510E-002  5.369608593921251E-002  5.021107318978408E-002  4.687672940778080E-002  4.367530899701473E-002  4.057758301969888E-002  3.758042710892649E-002  3.466096894684152E-002
  3.181953730900638E-002  2.906118927048116E-002  2.638874359105307E-002  2.380614504981706E-002  2.131949927807328E-002  1.893643044941747E-002  1.677567185172407E-002  1.469524801147919E-002  1.271484301480025E-002  1.085335293964553E-002  9.135567180891110E-003  7.496629407624247E-003  5.900034830566609E-003  4.448523241639662E-003  3.133040636824879E-003  1.991267912076370E-003
  1.082931705627653E-003  4.757355206098552E-004  1.847188455242763E-004  1.306985549166806E-004  3.913542589278574E-004  1.005547828738060E-003  1.926550829010065E-003  3.066530765252533E-003  4.355301645645492E-003  5.739019364112737E-003  7.412560289103829E-003  9.174110008191776E-003  1.103891341161102E-002  1.292175862090623E-002  1.485194238489064E-002  1.687693637700763E-002
  1.904696891993238E-002  2.132877920421985E-002  2.373221318237571E-002  2.619821064637302E-002  2.873424832585965E-002  3.138403684628484E-002  3.418693305829860E-002  3.714051144937240E-002  4.023445018754548E-002  4.345688738657061E-002  4.679708865018110E-002  5.024329509244303E-002  5.379215176079604E-002  5.744354555261717E-002  6.119019170839974E-002  6.539109737619019E-002
  6.973798481426255E-002  7.422833975422252E-002  7.885909023718957E-002  8.356177272964339E-002  8.840539384342622E-002  9.341621370183406E-002  9.859220899235553E-002  0.103935526910625       0.109436509237497       0.115114613637058       0.121010839039916       0.127174932991770       0.133619993182184       0.140349303503361       0.147359475331744       0.154651820971920     
  0.162229519224571       0.170093665303753       0.178248282068346       0.186696913134548       0.195444063951833       0.204675063250416       0.214248239813934       0.224169370313552       0.234447549187674       0.245091068209801       0.256107073287321       0.267505925400071       0.279298376503720       0.291491921120172       0.304097346961091       0.317126935909242     
  0.330588122570916       0.344490755045844       0.358848173250886       0.373660558367959       0.388938452396807       0.404687812226120       0.420893967523875       0.437567096873249       0.454649549905526       0.472132876900095       0.489690529531439       0.507115515086341       0.524406093532827       0.541564663516773       0.558594965636725       0.575178998691269     
  0.591293342074445       0.606918489555895       0.622053552073293       0.636700789157936       0.650824491727501       0.664436214228540       0.677551372085631       0.690187983257862       0.702366431699915       0.714138105162222       0.725544831271593       0.736594691657242       0.747296003005194       0.757650977038322       0.767668028570064       0.777355974717288     
  0.786723610893838       0.795693093753238       0.804333432345871       0.812649447824521       0.820647027716938       0.828330814621851       0.835705139080390       0.842777234167621       0.849609599782666       0.856232097865480       0.862647816945615       0.868860539817980       0.874874131688584       0.880692579544720       0.886319170316927       0.891757011425519     
  0.897009548110136       0.902081128144999       0.906979475983867       0.911709133686086       0.916274600625360       0.920486845227564       0.924583373848608       0.928562312359320       0.932426548282822       0.936161162266444       0.939763158917158       0.943238898468956       0.946580641789173       0.949792006207450       0.952888327028864       0.955845544771556     
  0.958670314068361       0.961418997998466       0.964088552870292       0.966677147598112       0.969183535865340       0.971607144536325       0.973949152876070       0.976210608124159       0.978394826543445       0.980505712845752       0.982495118902886       0.984430181785510       0.986296241312410       0.988098044274789       0.989839555494676       0.991522071234916     
  0.993141147103931       0.994698053352977       0.996195302512495       0.997688755025054      -1.097076481601564E-003 -8.956245385830185E-004 -1.044842635714398E-003  0.995851949362902       0.997293831009409       0.995845863888444       0.997081671157515      -2.521953297166959E-003 -4.287091984726705E-004  0.995519072767287       0.996298291367538      -2.075341791727818E-003
  0.994461816753602      -2.409229470029596E-003  0.993974239580122       0.992317476671801      -6.919698568533275E-004  0.992742625365530       0.993725301028894      -2.447206626607778E-003 -3.995446514341082E-003  0.994826317706099       0.994987608966804       0.998720302350634      -1.463031436568705E-003  3.266562233570734E-004  0.990993904025243       0.989225271492348     
  0.987452756784844       0.991838503750879       0.998029102486820       0.993311062044370       0.991102058502051       8.211372819764328E-005 -2.110840872241434E-003 -4.091063196618349E-003  0.992727356157037       0.997278751209273        1.00036936880657       0.998005449683487        1.00105084893899      -3.381173298008556E-003  1.356575967374707E-003  0.996407755461813     
  0.996811207282366       0.999368415417503       0.989372671391171       0.990010157880876       0.988160509335445       0.986248442360002       0.990831844424155       0.992610663544155       1.170633805246099E-003 -8.089043270688922E-004  3.808834978579049E-003   1.00215738480075       0.990360034707269      -5.439465757258092E-003  2.627658056224916E-003  0.990846835429444     
  0.987489005658565       0.988880113689634       2.408844676958297E-003 -4.157184019190970E-003  0.991588852812934       0.999783733359735       0.999234009561747       4.106490294470601E-003  0.989017431583316      -2.615230637945352E-003 -3.828632247579594E-003   1.00306819353425        1.00113213727371       0.994737034839859       0.998871424551277        1.00094581537003     
  0.993632083039634       7.465980340909827E-003 -2.563669253334317E-003  0.999503763134788       0.998648200761063       5.754913258302104E-003  0.985523972453885       0.983538448736672       0.991764780196499       0.997888864262048       0.986778682906843      -5.913107025874885E-003  0.988184761163970       9.142645496431656E-003 -5.559220042768995E-004  6.365021867616306E-004
 -5.414929698557345E-003  0.984155480170718        1.00334298400494       0.987032546835775       0.984828594994698       0.997697479444363       0.995665001216768      -1.531893133600491E-003   1.00393538797167        1.00581445975021        1.00167357050166       0.984632978340848       0.982384923182082        1.00076894348140       0.994074620232488       0.985994359244713     
 -4.818706726963364E-003  5.746002109082100E-003  1.695108139527424E-003  7.517753345401300E-003 -7.175525202811715E-003 -1.770227930135370E-003 -1.409474273972502E-004  3.520334902267868E-004  2.098140580665659E-003  0.994619387189766        1.00251066196433       0.995494990486730       0.988159892273874       0.992443248809852       0.981778727317388       0.979621906901710     
  0.982608229211882       3.815967032824361E-003 -5.636360699127588E-003 -7.516394655151633E-003  0.977472916182919       0.989592753002592       5.395227406934263E-003  0.985881801184374       0.990797051167950       0.993582489540325        1.00027447889607       0.999500471703722       3.247606433050938E-003   1.00527375710347        1.00424568251389       0.996464946788153     
  0.998418183220442       6.291551501206254E-003  0.999911025792336        1.00221388722228       1.092455570324062E-002   1.00281763829012        1.00676873621876        1.00450896961712        1.00710980486091       0.989970215046616       0.993096743612502       0.988915908770179       1.563289352663396E-003  7.154452903411069E-003  0.989915177316460       0.985806151495372     
  0.983150967016503       8.929698529296291E-003 -6.134107103356837E-003 -3.946830465065529E-003 -2.582207076883847E-003 -3.865682757456293E-003  0.991251773723594       0.992368501514340       0.980488736277125       0.978294155557865       0.975914328426906       1.096023211024096E-002  0.991923194053909       0.995909332380838       0.994885805881363       0.996974581765179     
  4.995296136293727E-003  1.290221013077395E-002  0.987524145031840       0.987217921528651        1.00313341841446       0.989194891464206       9.028461542872826E-003  0.987234586765965      -4.178378315419413E-003 -8.065857885955950E-003  0.981282899236857       0.979990564982856       1.291711106567850E-002  0.981780175857477       0.977497614213397      -6.147284483127252E-003
  0.985277613435256      -7.565083549438589E-003  1.096023367171556E-002  0.994458846659091      -3.042961007309979E-003  3.633481007987409E-003  0.975213550144069       1.093141934635522E-002 -5.777522297148281E-004  9.158598685671663E-004  1.488947958893543E-002 -9.796321765351997E-004  6.905420147345763E-003  0.978612327390006      -6.361305524790993E-003 -9.073701595256972E-003
  8.921907171369620E-003   1.00547549552900        1.00837010855297       0.979382107928100       0.976929419203663       0.973815563386158       0.984468207979851       0.982324636520953       0.993614909903793      -1.622513343386256E-003  1.284288397302206E-002 -9.842972431972413E-003  0.976581296990025       0.974213151100061       1.503156425930574E-002  4.588918992650850E-003
  8.698070302389236E-003  1.096523776794271E-002  0.972855741988488       0.970467333486200      -8.294538048381331E-003 -1.042953961616684E-002  7.313371866369140E-005  1.314914627081804E-002  0.983617658378089       0.980787800093132       0.982683352918634       0.980052713794815       0.980827836354861       0.980381374640535        1.00879169337247        1.00551658345010     
 -5.944581775375477E-003  9.785487740724347E-004   1.00204111400545        1.00127804776555       0.984689320685351        1.00415658533240        1.00380528152489       0.971714994415036       1.723757370592361E-002  0.981727603926706       0.983120655580640       1.109975855850107E-002  0.998562033642273       0.989456163793878       0.969136294823231      -3.702173531811168E-003
 -5.182194232951719E-003  0.985497263602699       0.995911436692234       1.539004488617390E-002  0.979375366257420       2.647728689887858E-003  1.700309507071369E-002  1.484415985196263E-002  0.973446914279381        1.00776841170433       0.978546181691745        1.00125873223439        1.00019023459454       0.978221245404866       0.997476956809422       1.345606994550636E-002
 -4.387683854678829E-003 -8.338780760426901E-003 -2.736109180857939E-003 -1.006172062370927E-002 -9.713537057020891E-003  3.403428936671147E-003  0.975573544471883       0.975773399820560       0.973191735222041       1.150979373331601E-002   1.00941962609831       0.970751901435662       0.968284902003902       6.711278790830810E-003  0.971643962150549       0.965797125394948     
  0.963558741585613       8.788270790412712E-003 -7.928709069419998E-003 -1.084903451620962E-002 -1.930679233372640E-003  1.926278240583048E-002  1.708002343619648E-002  0.996355923841511        1.00298758714726      -1.188778928600546E-002  0.982867503666024       0.979691654696558      -8.322970916329267E-004 -7.245041317162781E-003  1.471425801326123E-002   1.00190219348745     
 -1.060399795375172E-002 -1.293323547481661E-002  0.977562349353052       0.977079893949423       8.962710099429415E-003  9.558010861448888E-003  0.987494475296248        1.01089222027147       0.990397406576697       1.572212880063205E-002  2.018619566025001E-003  0.969435553530605       0.966942534835178       0.964307131977773       0.961247305008290       1.770292509154582E-002
  2.096435226807994E-004  0.970482800782954       1.383226212864947E-002  1.956143048329957E-002 -1.224907810988111E-002  0.993299510713834       0.994701090280126       0.997443666484026       6.637110880178546E-003 -6.528865309192040E-003   1.00610492963690        1.00607029885661       0.967638520418524      -5.729500480888746E-003 -4.903115049969841E-003  4.203732850263176E-003
  0.970820509917601       1.267413283568746E-002  0.999116340781859        1.00080769740184       2.162687585791303E-002  1.947431657813805E-002  1.715082298558186E-002 -3.940089879609752E-003  2.199444856384140E-002  0.974928063672141       0.972104479269300      -1.467541270344877E-002  0.987867096187348      -1.055391129786851E-002   1.01052554183155       1.578749990687077E-002
  9.204959729882287E-003  2.014059854987164E-002   1.00470820415391       0.968243897836800       0.965664253835846       0.996075326153241       0.962698518037413       2.400639536624501E-002  6.088106336670527E-003  2.194359049521057E-002   1.00869991447105       6.502817474682086E-003  3.834088049197573E-003  3.500942891435150E-003  1.811300535992801E-002  3.223093341953858E-003
 -8.841716550961071E-003  0.990369008159146       0.985376222988194       0.983356921902971       0.985774195329880       0.987812362234813       0.995053073292441       1.459375689873055E-002 -1.828742859288481E-003  0.966237043356380       2.075522911322192E-002  0.969519413679217       0.990917342534900       0.989933268346872       0.987581073760153       0.985373822742212     
  0.988265043135150       0.989202617161280      -1.228689640503450E-002 -3.118357590495674E-003   1.00026849975933       0.984489118550538       0.968335216975286       0.997991515447042       0.996773525445795       2.634452770446304E-002   1.00816584216689        1.00639456866511        1.00993219575386        1.01162851754692      -1.301199694128735E-002 -1.560608032104571E-002
 -8.437437768932594E-003  1.976090727374916E-002  1.725707919100387E-002  1.451366028377627E-002 -1.005110204672746E-002  0.990688900616486        1.00904916702700       6.115621997952624E-003  0.980491514568102      -7.193436650323554E-003  0.992371301821628       0.993076080403892       0.994228857709251       1.365412067360493E-003  0.972370848656536       1.250492329554540E-002
  1.207311543622023E-002  0.980950870928953       0.970754784207664       0.959388092443632       0.963099961571021       0.960215153473439        1.00419144537351       0.964745804465682       0.967861266556252       0.973734276324044       0.972059095791807       0.975714556337943       0.976628441510678       0.975017668812782       0.973388871013508       0.957231288545474     
  0.953950902578049      -5.325344987211352E-003 -1.279967574942619E-002   1.01213389649828        1.01334010904659       0.982482084307202       0.979918651531338       6.500844473961442E-003  6.154723557184525E-004  7.222963625238176E-004  3.893781792756498E-004 -6.142762866070678E-003   1.01142579710030        1.00712432412260      -1.042697810654580E-002  2.889592187878734E-002
  2.605842529281978E-002 -1.502682821037112E-002  9.195091992814675E-003 -1.547888375140389E-002 -1.840355281562695E-002  0.992081823569058       0.990181714847899      -1.256280121565734E-002 -1.531285414704448E-002  2.687652142012787E-002   1.01102865828235       1.182278946948419E-002  0.986570255875626       0.987158994516279        1.00309161969559        1.00909272669078     
   1.01196098245998       0.987782279015048       0.961914446420863       0.958966849693348       0.955735706157643       0.952203252101616      -3.000881243340003E-003  0.977908367812900       0.985006678892200       0.984422083895836       0.982712729306955        1.00924858048797       0.977595743855403      -1.230274631880855E-002  0.984181140851639       0.967183264381754     
  0.969098349959958       0.970447687908115       0.971618931170586        1.01113666921902        1.01171398790592      -8.826100122616261E-003 -1.797085811391496E-002  0.963510081644015       0.973917506142185       0.970992470014850       6.241870869639603E-003   1.00723690224537      -4.213245752572610E-003 -7.885958700244873E-003   1.01194043216751        1.00424742120051     
   1.00212131953033        1.01291993311448       2.259035255981299E-002  2.955855285373807E-002  2.683603192797287E-002 -9.259428386276199E-003  2.264537012371411E-002  2.444401280976852E-002  2.356155765404542E-002  0.978176394751867       0.976808526057877       3.254421107860753E-003  2.919915571692479E-003  0.999133798624063       9.664324738971886E-003   1.01401221700099     
  0.960974289618610       0.987702196668143       0.993467918479433       0.995319280727696       0.957813041280629      -1.211364584509134E-002 -1.513318811885812E-002  0.964693821657763       0.980316618568394      -1.525152703153737E-002  0.981331122008013       0.984548239512863       0.990923683045006        1.00654831118578       0.973008565078444       0.969178374402852     
  0.966109696538327       0.963820478838028       0.967796657230649        1.01337854641760      -7.375861808664464E-003 -1.092985042341396E-002  1.160185020231769E-002  2.418677659064803E-002  2.014976216848100E-002  1.737637987682225E-002  3.164229473756763E-002  2.920254058496717E-002  2.775670318985571E-002   1.00508029537585       1.442107905866041E-002 -1.635743964722393E-003
 -1.617828579313178E-003   1.01421458854714        1.01652442996466      -1.538935245165673E-002  0.954704200279910       0.951587111717464       3.248977858538352E-002  3.020471982176810E-002  2.794741158353538E-002 -1.246756095352755E-002   1.01389603783170        1.01758868436363       0.975445938060714       0.969996638251336      -5.295607674506722E-003  8.923543755639113E-003
  6.856653335723609E-003 -1.839825211437135E-002   1.01413182450849        1.01522783884039       2.488810915018472E-002  2.147637584818513E-002  0.966001985390632       0.967521925916624       0.969017723746392       0.969204440445826       0.997846310517499        1.00559139483865        1.00832255507472        1.00412266518334      -1.065623748442674E-002 -1.313477961919053E-002
 -1.530702727056706E-002  0.948401874658669      -1.068218247740229E-002 -1.409751158489609E-002  0.975348720728874       0.956192790130927        1.00910901521556        1.01194790953187       0.981225981433352      -1.402336951673851E-002  0.991330060845317      -1.772005544712131E-002 -2.101768697611916E-002  3.541103866478296E-002  3.322672418671856E-002  3.108582193017053E-002
  2.910908891156564E-002  0.972401031015086       0.975204188199216        1.00104349512494       0.999796184066886       2.346913039569482E-002   1.00724277684426       1.451274717876696E-004  6.028214163802948E-003  3.188060468851886E-003  0.966707528065832       0.969091650740450       0.978362470563072       2.465561972215218E-002  1.850572684121729E-002  1.584661419678133E-002
  0.999838655081044        1.00237697187541       0.998923032608515        1.00600798184696        1.01469919815428        1.01490266379098       1.290742881366795E-002   1.00363286874009       3.453305441909266E-002  3.165195450270396E-002  0.953139477368704       0.949880868868635        1.00546434061520       0.946310360885959       3.834815256469917E-002  3.610657751948206E-002
  3.398432903845452E-002   1.00906910453908       0.960942403439627       0.957454922536214       1.900048873155724E-002  0.962573522739020       0.985048618403074       0.977077726815518      -1.673793278402701E-002  0.965606972073135       2.049350730375572E-002  1.746379194464350E-002  0.964282225127195       0.966275784207759      -1.241926545836422E-005 -7.118092561891209E-003
 -1.412561224885592E-002  9.906822151210234E-003  0.963900158120930       0.961694903158530       0.968030660465746      -1.761441457007379E-002  8.617534931501775E-003  0.954657384797874       1.429066753001859E-002  2.229497698616884E-002  2.571732194887098E-002 -1.241941563468314E-002 -1.536456181737265E-002 -1.381497771555889E-002 -1.712958819658502E-002 -1.767313934889349E-002
  0.954673478202777       0.958849848871552      -2.169126853493669E-002  4.138831133435839E-002  3.897313310825943E-002  3.662160590654312E-002  3.482944062652152E-002  6.858993543625942E-003   1.01245855548066        1.01703566488913        1.01898615124781        1.00981352323756        1.01671928219176       0.971785733633125       0.975186621636090       0.960648490490101     
 -2.324837879551341E-003  3.766463425365538E-002  3.490106106993345E-002  3.187768564599305E-002  0.951803276529845       0.948030628109786       2.386524568475777E-002  0.996772586451169       4.317156284942866E-003  3.992501592827212E-003 -1.798400735611528E-002 -1.577440524798494E-002 -1.764015537013776E-002  0.962633034702557       0.958735025805789       0.978170586308184     
  5.912857421596680E-003  3.786571117343432E-003  1.320432489269600E-002  1.129325079701824E-002  0.943478925849907       0.948633829865101      -1.845354237934644E-002 -1.839464717985527E-002 -1.767283675833267E-002 -2.146191159360920E-002  0.964949637896092       4.458621935258019E-002  4.212277073657213E-002  3.917887436244330E-002  1.963624822381365E-002  0.954311592292369     
  0.957731228928828       0.959902257293405       0.950774505311911       0.956468489931931       0.952911238369387       0.949299680998193       7.933400973272661E-003 -1.229033469389239E-002  0.997802185778022       0.974421269322063       0.973209761317882      -2.031860858738106E-002 -2.029565259086520E-002  0.970788613961360       1.621025695355375E-002  1.399402221806322E-003
  0.981483705614193       0.984529605912395       1.669502997988383E-002  2.073580241954747E-002  1.753769496038800E-002  1.416940629718416E-002  4.090099016361887E-002  3.825942982463858E-002  0.978813214862678       0.973606278057443       1.005287711924119E-002  6.739573533602125E-003  0.945186687399536       0.941690301570499       9.260646663737842E-004  1.088661622182704E-002
   1.01428621905845       0.960848291187535       0.956721893739080      -1.926329076781068E-002 -2.149724273346018E-002  0.938094876108556       0.934448340395003       2.323248523075375E-002  0.947239733773786       3.540476570818998E-002  3.222679002427016E-002  2.702669260664105E-002  4.790759911204601E-002  4.550700518490526E-002  4.304947601786151E-002  4.097502516024933E-002
 -4.847667184968154E-004  0.987738199576335       0.990967870617517       0.955144730216509       3.726725540795113E-003 -1.988000655555418E-003   1.01426638674326       2.418779277663479E-002  4.418338027040929E-002  4.158297318431736E-002  3.906759118108171E-002  2.038391682958236E-002  7.093839819137119E-003  1.353365319937052E-002  0.943729527025622       0.940142511458921     
  0.942507547530567       0.987701941092279       0.994163608442446       0.994232819320349       0.945554902467655      -2.244018747895434E-003  0.958749616983021       0.951402022779313       0.947632138101440       0.988727524750651       0.992415710245237       0.938415656953564        1.01082387180220       0.990975713963871       0.934618167235816       0.956742118775895     
  0.954732427814522       0.952586709829495       0.971760292323906       0.945784074581349       0.957591305978144       1.017635364944283E-002  6.566913639052850E-003   1.01657330429587        1.01515657821174        1.01659076579804        1.01882259472032       8.103336378071272E-004 -1.423961685177488E-003  1.053050237711112E-002  4.754409626302804E-002  4.478937422418504E-002
  4.224555044831996E-002  4.076641492683689E-002  0.950389861162448       0.946275883959313       0.930614281913569       2.099977839741317E-002  1.766155259126399E-002  2.667399689099511E-002  0.989671253100377       0.978409108212109       0.982285742859237       0.986020423662450       0.975123056871631       0.975113933774023       5.133409196073874E-002  4.889528380601126E-002
  4.642678212554339E-002  4.404931508803186E-002  4.096406864904207E-002  0.953666089738757       0.956070380181595       1.415137814511542E-002  1.724794291512276E-002  0.961622495409984       0.993344173496801       0.964147127161468       0.960127784939617       0.966701014625392       0.940030738020362       0.998210228193807        1.00120780676880       0.994371176904736     
  0.942340143194574       0.938651121066787        1.00205904716591       0.948758988864406       1.389715541921394E-002   1.01774612678972       2.828935603952167E-002  3.148352399547514E-003  0.936391964744192       0.952703015762400        1.00048669575934        1.00323275555090        1.00636016365013       0.967524876411180       0.944880266302513       0.949689696172835     
  0.945133449214754       6.521989753795582E-003  5.105925546967097E-002  4.815784744779503E-002  4.496940847401140E-002 -9.252718130426442E-003 -1.234009882506503E-002 -1.574703637277727E-002 -5.546174355592784E-003 -7.909557732901241E-003 -3.611871503711346E-003  0.987565850338968       0.979559643765935       0.999549533995820       0.944442706195586       0.936624226568858     
  0.932607615753395       2.471935266585655E-002  2.863591526087251E-002  2.433767927770705E-002  0.997062329834653       0.998407172882155       0.990942766252723        1.01810805366283        1.02018275876610       0.990488337273884       0.996007052215994       0.997131471052190       0.994264876217703       0.984345028096538       0.963171179211938       1.032843760086298E-002
  6.490113624548094E-003  0.934607038431823       0.950792605566500       0.948458145928360       3.198153153526059E-002  3.088700671790021E-002  2.890726048647020E-002  0.942040948073161       0.947388919923685       0.943974313753916       5.488909294582606E-002  5.237356037658662E-002  4.977152781992051E-002  0.983360977039061       0.986914961194254       0.987415141623427     