 VARIABLES = "X" "Y" "RO" "U" "V" "P" "M"
 ZONE T="  0.000000000000000E+000 " N=        9944  E=       19548
 ZONETYPE=FETRIANGLE DATAPACKING=BLOCK
 VARLOCATION=([3-7]=CELLCENTERED)
  -19.9782054645671       -16.7460447536127       -13.5432470514743       -10.4462771124608       -7.39483127129757       -4.39431260318683       -1.43672854734527        1.47853524247441        4.40194279230921        7.38347804238703        10.4122197804982        13.5308676756442        16.7310607632789        20.0189460056259        20.0156650185539        20.0123451374732     
   20.0090067226427        20.0056742799471        20.0022854763303        19.9988742323503        19.9954939648514        19.9920871178897        19.9886881104951        19.9853470049941        19.9820070605281        19.9783478910574        16.7317203104092        13.4557822172063        10.1645634122701        6.87452312340184        3.53259687976399       0.170578499054329     
  -3.16443525887912       -6.48474521199279       -9.79114624567630       -13.0836966857758       -16.3754018560739       -20.0188035791356       -20.0155069002833       -20.0121812769038       -20.0088400757232       -20.0054989473046       -20.0021446450312       -19.9987763328347       -19.9953939522161       -19.9920253568386       -19.9886729196427       -19.9853365630757     
  -19.9819979716434       0.999450678547160       0.997931862393688       0.996417516565151       0.994913471911056       0.993364856856016       0.991755318433593       0.990080008745347       0.988343416125152       0.986545428031331       0.984683717325826       0.982744271769086       0.980735644299547       0.978641634236153       0.976474935451991       0.974231690437196     
  0.971904487155461       0.969490774736022       0.966989732503316       0.964399041245122       0.961719062288646       0.958944811946859       0.956068475368964       0.953078928779000       0.949966748763859       0.946760670848514       0.943439007890780       0.939969169920258       0.936393554898426       0.932700032390383       0.928867118885474       0.924859873758769     
  0.920708946192405       0.916409073277241       0.911946355958221       0.907311809105986       0.902498975941142       0.897501325434597       0.892306271299694       0.886901048679022       0.881277992425092       0.875429336011902       0.869356222150838       0.863051423431109       0.856506994699744       0.849712924952962       0.842660355136377       0.835340802406139     
  0.827747889911415       0.819873190053220       0.811708434505798       0.803245235323473       0.794474741614113       0.785389290137918       0.775979961071812       0.766122621361196       0.755906140997640       0.745319074423345       0.734350718487846       0.722994018626594       0.711236553071940       0.699065614120152       0.686473864788357       0.673449454875902     
  0.659978368678057       0.646053100784451       0.631660032969894       0.616782340678999       0.601408757034166       0.585518490392514       0.569098891225985       0.552134308990214       0.535213768324387       0.518255083969401       0.501225961783893       0.484126459096246       0.466956177737667       0.449065252737256       0.431769953145495       0.415068884678031     
  0.398960510320511       0.383429021380891       0.368389804881206       0.353824615089377       0.339729491976209       0.326113380271138       0.312961353106453       0.300274546100553       0.288053975630396       0.276281402379981       0.264931810625329       0.253957720538562       0.243346538559468       0.233085891114387       0.223168538696713       0.213586398914274     
  0.204327796345605       0.195381492567731       0.186742893614299       0.178395734858060       0.170330324174653       0.162529638634482       0.154986843226769       0.147695545637665       0.140649645158027       0.133842925420922       0.127268486485699       0.120920755526900       0.114794520853376       0.108884471458203       0.103186069293032       9.769493850062753E-002
  9.240689211816766E-002  8.731844627224218E-002  8.242587137325677E-002  7.772540938533902E-002  7.329520020238460E-002  6.902820714789085E-002  6.492609882838460E-002  6.098712873771366E-002  5.721142485643963E-002  5.357694705757463E-002  5.009534168107554E-002  4.676451123330337E-002  4.356672310265319E-002  4.047278102249728E-002  3.747956827945670E-002  3.456425112077514E-002
  3.172717155745708E-002  2.897339426574634E-002  2.630575024222320E-002  2.372819625358476E-002  2.124684695687238E-002  1.886933246028828E-002  1.671409337360275E-002  1.463950825808177E-002  1.266524597468413E-002  1.081017790493011E-002  9.099027253368253E-003  7.467248864643537E-003  5.878687982130002E-003  4.435786187497626E-003  3.129779801964973E-003  1.998474043583879E-003
  1.101541696342037E-003  5.061252655020622E-004  2.260066843574142E-004  1.831071509465487E-004  4.619912162596273E-004  1.099019834640799E-003  2.045436234926181E-003  3.211544611069401E-003  4.526246106070062E-003  5.935183431688953E-003  7.636752796123993E-003  9.425666196195949E-003  1.131760459778261E-002  1.322631124278107E-002  1.518167456170329E-002  1.723184802344031E-002
  1.942764331036314E-002  2.173534669154570E-002  2.416487607088721E-002  2.665652180193914E-002  2.921785936339686E-002  3.189301869773535E-002  3.472166639591273E-002  3.770126859621541E-002  4.082133657157556E-002  4.406984665171664E-002  4.743592934778585E-002  5.090769859608320E-002  5.448174614804663E-002  5.815793135206279E-002  6.192889664510809E-002  6.615580035270774E-002
  7.052825790302129E-002  7.504368709210649E-002  7.969895007171089E-002  8.442520409004191E-002  8.929178531197141E-002  9.432502435517229E-002  9.952282781394235E-002  0.104887293767639       0.110408673325474       0.116106443147857       0.122021672294165       0.128204168448179       0.134666950991970       0.141413195474127       0.148439393608772       0.155746756766335     
  0.163338371543109       0.171215241916505       0.179381309470146       0.187840039909667       0.196595866173745       0.205834174188571       0.215413050959134       0.225338197673658       0.235618638866285       0.246262599529973       0.257277163103424       0.268672632040524       0.280459702929823       0.292645820664167       0.305241726335815       0.318259657786987     
  0.331707014360963       0.345593612124620       0.359932759281497       0.374724627722398       0.389979743342071       0.405704059024718       0.421882942439022       0.438526578386148       0.455577455022185       0.473027188907085       0.490549948112081       0.507939287418426       0.525193613190655       0.542315449841314       0.559308650590239       0.575856033982825     
  0.591934359837364       0.607524279389872       0.622625004970304       0.637238876585958       0.651330339736055       0.664910983854005       0.677996239326544       0.690604123314257       0.702755005120528       0.714500181067944       0.725881404569518       0.736906754453272       0.747584539414426       0.757916972195575       0.767912450970603       0.777579771932288     
  0.786927706613252       0.795878563880332       0.804501194305903       0.812800394062930       0.820782021657065       0.828450691689687       0.835810706172663       0.842869263377649       0.849688724647559       0.856298879465593       0.862702795263449       0.868904232494522       0.874907034184620       0.880715165456396       0.886331893326548       0.891760306449377     
  0.897003831680088       0.902066797959838       0.906956906443595       0.911678682572023       0.916236610337703       0.920441959313249       0.924531838009920       0.928504371876064       0.932362440834717       0.936091146558302       0.939687495553255       0.943157835522133       0.946494436863758       0.949700908752833       0.952792560883279       0.955745367419507     
  0.958565969767480       0.961310645864718       0.963976355587494       0.966561269271099       0.969064140816260       0.971484396006404       0.973823210317158       0.976081627177653       0.978262955863990       0.980371093348141       0.982357949995591       0.984290573013239       0.986154318309496       0.987953923922866       0.989693347100996       0.991373879853356     
  0.992991080131576       0.994546213651432       0.996041787082383       0.997533596997875      -1.045929331070450E-003 -8.560991672083840E-004 -9.791784867039268E-004  0.995692287715373       0.997134865457279       0.995686002636892       0.996928651758234      -2.459578860742833E-003 -4.005232449129094E-004  0.995367441327403       0.996147065733219      -2.037271707047655E-003
  0.994301416826420      -2.359351970310330E-003  0.993824016719071       0.992169053153891      -6.063867224764968E-004  0.992581272965493       0.993564308555510      -2.368961077119475E-003 -3.934716725307463E-003  0.994676029810974       0.994838611280796       0.998566183174938      -1.436583252717308E-003  3.433851161807983E-004  0.990831662936460       0.989062167498174     
  0.987288795025911       0.991676628745556       0.997876712786737       0.993162343388104       0.990955800103796       1.931404583470806E-004 -2.005186234738546E-003 -4.018561097119535E-003  0.992565811517235       0.997128257150656        1.00021480861522       0.997846664096667        1.00089492147383      -3.344621287841424E-003  1.362230106627950E-003  0.996259791929053     
  0.996651542215720       0.999210707151320       0.989227551895685       0.989847478771662       0.987997029083120       0.986084132429565       0.990684936161804       0.992464393526623       1.305569377111124E-003 -6.809141685873588E-004  3.993736427032763E-003   1.00200330799087       0.990216278375492      -5.370494385117949E-003  2.622915032241080E-003  0.990684505971384     
  0.987346282510452       0.988736711363957       2.568277812960444E-003 -4.066648750046943E-003  0.991426802668516       0.999625708126812       0.999082365142088       4.092019432771694E-003  0.988854427558178      -2.590421972635842E-003 -3.779976729496406E-003   1.00291333960894        1.00097951803468       0.994576385111243       0.998712717390354        1.00078802430449     
  0.993470873234627       7.434443877829340E-003 -2.438681594384414E-003  0.999350643584763       0.998498732364171       5.731309486549391E-003  0.985383623395349       0.983400512786710       0.991621010196749       0.997741864446191       0.986637611819090      -5.831578196218047E-003  0.988043169211753       9.104975066263522E-003 -5.408689992978300E-004  6.405933224572298E-004
 -5.367771733996899E-003  0.983990167631546        1.00319040674738       0.986868718103204       0.984663762342957       0.997537872383639       0.995504611828596      -1.518375340304986E-003   1.00378172246491        1.00566200254886        1.00151684093769       0.984494278046132       0.982248691104015        1.00061834858276       0.993928687024511       0.985854937703538     
 -4.783844602508794E-003  5.719430412224969E-003  1.869024820803375E-003  7.484368883587858E-003 -7.130087123384137E-003 -1.629975174919546E-003 -1.382985039523996E-004  5.014227649043379E-004  2.091723323490990E-003  0.994458488607144        1.00235935244121       0.995349638062867       0.987996610622569       0.992281527910596       0.981612244936113       0.979454564512953     
  0.982442275711257       3.799326597201379E-003 -5.576669571045335E-003 -7.443021787975504E-003  0.977304692685194       0.989450967653771       5.606768786877718E-003  0.985717177006091       0.990655343114462       0.993421041843024        1.00012616187793       0.999354535246057       3.447571101416684E-003   1.00511969935008        1.00409020659583       0.996304675385872     
  0.998258540898405       6.260674455774765E-003  0.999752440489769        1.00205633234453       1.088030956712973E-002   1.00266823094479        1.00661419834723        1.00435803125838        1.00695947915640       0.989807578631877       0.992953235383183       0.988775422566957       1.555235662759412E-003  7.393586102132572E-003  0.989752525663577       0.985641840835917     
  0.982985399949130       8.891019827455519E-003 -6.032834466276340E-003 -3.815280383206372E-003 -2.570035000222575E-003 -3.842487458675011E-003  0.991089481801237       0.992206488603407       0.980321999861337       0.978126599034595       0.975745819028590       1.125277531461768E-002  0.991781871204246       0.995748699128534       0.994724643359088       0.996830043987400     
  5.222402113528056E-003  1.321843811720959E-002  0.987384075610265       0.987079174257905        1.00297664457684       0.989031920540417       9.294958702598810E-003  0.987070900305962      -4.064656618911124E-003 -7.973209107144653E-003  0.981116576132541       0.979857235874808       1.286630312240787E-002  0.981644132630131       0.977367637662012      -6.026164378878963E-003
  0.985139965580010      -7.506423521608343E-003  1.091445177236705E-002  0.994315898145423      -2.889377667310713E-003  3.614540671480660E-003  0.975086423602670       1.123713363296025E-002 -4.143286767227304E-004  1.104598115827039E-003  1.522889179545197E-002 -9.781387591270500E-004  7.160108053835945E-003  0.978481721078141      -6.328355843191837E-003 -9.030687642837267E-003
  9.203573766677495E-003   1.00531952353784        1.00821519026278       0.979215232806034       0.976761682351446       0.973646390836583       0.984303350766419       0.982158932886551       0.993453185064935      -1.444526759742008E-003  1.316843749122314E-002 -9.770950240628868E-003  0.976452972608686       0.974087854067170       1.497470981447418E-002  4.831640551049152E-003
  8.657977544378434E-003  1.128081176741265E-002  0.972731747318186       0.970346559257161      -8.183276081937505E-003 -1.032684125593476E-002  2.766816731675937E-004  1.309689217539779E-002  0.983480875496303       0.980654849827491       0.982549145791622       0.979921942516812       0.980661552101564       0.980215071223698        1.00864026101121        1.00536755707326     
 -5.801272278342022E-003  9.691175541063758E-004   1.00189401105154        1.00113327125402       0.984554269191520        1.00399975126138        1.00364791764078       0.971592906067967       1.717511602210819E-002  0.981595852767662       0.982988246595344       1.105222284341165E-002  0.998418470144547       0.989316313319434       0.969017327166545      -3.691133757251892E-003
 -5.160542257912732E-003  0.985332943957550       0.995769287970930       1.533215205867392E-002  0.979246041095845       2.863016554516738E-003  1.736735010538782E-002  1.519285038981493E-002  0.973277278158765        1.00761530548565       0.978379231350903        1.00110036666078        1.00003101819428       0.978091757677319       0.997316688409010       1.340237345131787E-002
 -4.219522290995259E-003 -8.208578765302312E-003 -2.543981099015491E-003 -9.975718708745855E-003 -9.656005390854540E-003  3.382277619138978E-003  0.975404615649299       0.975646830918465       0.973068392318609       1.146023507856304E-002   1.00926604372631       0.970581259686457       0.968113483773707       6.981553651493098E-003  0.971473801114615       0.965624928988571     
  0.963385924521797       8.746486584374488E-003 -7.897759245717411E-003 -1.080887860407635E-002 -1.929993935089783E-003  1.965277436014660E-002  1.745406263908918E-002  0.996195104074143        1.00282941031313      -1.180613934751173E-002  0.982702205958290       0.979525213266341      -6.141952672426621E-004 -7.085717625935035E-003  1.507306765578559E-002   1.00174325330394     
 -1.048321574480813E-002 -1.282087820944220E-002  0.977434394397992       0.976954021103142       9.259721466427057E-003  9.873572478795348E-003  0.987357458189808        1.01073835262303       0.990258805635674       1.566357889312698E-002  2.249195419060286E-003  0.969264782980769       0.966771050047503       0.964134881959162       0.961074032726926       1.763969277496390E-002
  1.988245442763804E-004  0.970362777630305       1.377739661091963E-002  1.949349963296099E-002 -1.217827780300963E-002  0.993158922431976       0.994561228380436       0.997302424806144       6.922798882261680E-003 -6.508675076883277E-003   1.00594851579987        1.00591323732464       0.967522159951842      -5.547901704572628E-003 -4.893237968311325E-003  4.462058212248690E-003
  0.970650340248889       1.262183883713468E-002  0.998956453999474        1.00064810914278       2.204236340643140E-002  1.987386124355708E-002  1.753469125148330E-002 -3.734565377619070E-003  2.192114783755183E-002  0.974803505414393       0.971983285316679      -1.458986798886346E-002  0.987731776690394      -1.041625294945327E-002   1.01037331613300       1.572855079658177E-002
  9.161526616449022E-003  2.007183821130169E-002   1.00455026031009       0.968073069207046       0.965492815770102       0.995936451096681       0.962526179630000       2.444520242063451E-002  6.055645352720726E-003  2.236763310765403E-002   1.00854412558725       6.804839513524273E-003  4.108716382118211E-003  3.792384997709252E-003  1.804903217070203E-002  3.199838356821034E-003
 -8.668706501763743E-003  0.990232386794438       0.985242282923200       0.983225336310524       0.985641024528908       0.987678628271082       0.994891682335566       1.496274733943052E-002 -1.595604004303412E-003  0.966121802142160       2.068563654124620E-002  0.969349165985423       0.990754751824566       0.989770461423621       0.987417524536278       0.985209494393226     
  0.988101639375594       0.989039365865598      -1.223182220291007E-002 -3.118554356955391E-003   1.00012600762275       0.984358711768369       0.968216932199961       0.997831069104823       0.996612521499860       2.680479420440543E-002   1.00801723218183        1.00624714235579        1.00978241127067        1.01147776353251      -1.288202645654404E-002 -1.548350651532852E-002
 -8.293028732257504E-003  2.016948866933781E-002  1.765030204676353E-002  1.489215244083941E-002 -9.898385357914522E-003  0.990554302629123        1.00889277060273       6.080875585993329E-003  0.980362090317210      -6.998985733471581E-003  0.992232567316956       0.992938426168985       0.994093262412975       1.611736631823955E-003  0.972201486972193       1.283858751008192E-002
  1.241756122914670E-002  0.980823286821923       0.970585233082099       0.959214641609976       0.962989686205606       0.960108863898433        1.00404362976812       0.964633743892089       0.967690904856722       0.973565745947919       0.971890204921075       0.975546653160915       0.976461010927092       0.974849753877426       0.973220490444169       0.957129222057664     
  0.953853529036634      -5.106942375387139E-003 -1.265381656835734E-002   1.01198098395410        1.01318655895377       0.982316861680071       0.979752475048478       6.463944047146867E-003  6.002263460680500E-004  9.863846663841071E-004  6.713318503964148E-004 -6.134347033527898E-003   1.01127042635237        1.00696713801106      -1.024080149096386E-002  2.938369747874116E-002
  2.652119454901370E-002 -1.495863123341573E-002  9.525034722528660E-003 -1.533896394870258E-002 -1.826915828513039E-002  0.991919477285931       0.990018675499836      -1.246828496766633E-002 -1.520869625350315E-002  2.679448869239794E-002   1.01088049775278       1.217748535340530E-002  0.986406183402681       0.986995070002312        1.00294805348884        1.00894574759521     
   1.01181443649671       0.987618527457288       0.961806108669894       0.958862595938314       0.955635953321820       0.952108530897304      -2.748140752397334E-003  0.977783500545118       0.984842203984947       0.984257468643035       0.982547663846729        1.00909177332171       0.977428671387188      -1.213631653905964E-002  0.984016428858104       0.967012451966576     
  0.968928629744495       0.970278513569881       0.971450208393635        1.01098208267776        1.01155809356238      -8.619850135669311E-003 -1.788939959559939E-002  0.963400141027268       0.973795237044694       0.970873517297734       6.559231373095865E-003   1.00709119609743      -4.214445525337731E-003 -7.867296503748683E-003   1.01178409062286        1.00410152447528     
   1.00197994780638        1.01277059435224       2.302290127538222E-002  2.947134419503295E-002  2.675520009538387E-002 -9.242364107603370E-003  2.257135217325526E-002  2.436601471131897E-002  2.348672570885392E-002  0.978052807616991       0.976641217866246       3.561197061960862E-003  2.893225709281595E-003  0.998993630859811       9.619812578002792E-003   1.01385783350245     
  0.960867812604251       0.987571033270602       0.993305869562240       0.995157619572992       0.957638695063917      -1.191724307353474E-002 -1.507529139035414E-002  0.964522522841875       0.980150658900506      -1.509757793575170E-002  0.981205608582176       0.984421112959267       0.990791847497254        1.00639061602732       0.972888227879872       0.969060775399753     
  0.965996349957650       0.963711358247720       0.967681751068178        1.01322706171690      -7.369118146578341E-003 -1.090266451325962E-002  1.196590812696328E-002  2.462914642380483E-002  2.056743614876103E-002  1.777927154525321E-002  3.215480426214384E-002  2.969756527389865E-002  2.824389857661280E-002   1.00493782168087       1.480935985286659E-002 -1.643595903403962E-003
 -1.629490172103251E-003   1.01406429575328        1.01637374399250      -1.521976190772754E-002  0.954529071612125       0.951411243326577       3.239776944222227E-002  3.011743004449528E-002  2.786500700285992E-002 -1.244232998556359E-002   1.01374092629167        1.01743471087504       0.975323047510030       0.969880171261150      -5.297391701846348E-003  9.264760700841732E-003
  6.818323663218195E-003 -1.828462684665156E-002   1.01398423019881        1.01508184935793       2.481031570854124E-002  2.140606718180656E-002  0.965831450743953       0.967352051335463       0.968848332308903       0.969035259678575       0.997708764357027        1.00544709301065        1.00817873018318        1.00398248362742      -1.043879028213433E-002 -1.295328212994718E-002
 -1.512029866590922E-002  0.948225237848833      -1.066622920476092E-002 -1.407430628344912E-002  0.975226973296757       0.956018411063657        1.00895181390834        1.01179123367470       0.981060282828436      -1.398823305538264E-002  0.991167226162004      -1.765495993669435E-002 -2.094004146209223E-002  3.531489653436743E-002  3.313496353425410E-002  3.099817978160797E-002
  2.902527532567983E-002  0.972282936907413       0.975084258195386        1.00090446543169       0.999659813309247       2.391370538320238E-002   1.00710180314922       4.410865110694243E-004  6.358471287653255E-003  3.509113301864997E-003  0.966595730453811       0.968977997203120       0.978240592992557       2.457962889107820E-002  1.844106665484479E-002  1.578746833443914E-002
  0.999678553866575        1.00221754313129       0.998762368411584        1.00586875194735        1.01454378571848        1.01474677037449       1.285502047543566E-002   1.00347410500427       3.507166163604485E-002  3.216829308263119E-002  0.952964399156458       0.949705018860326        1.00530567391839       0.946133670865771       3.824820767644296E-002  3.601107317038103E-002
  3.389278405018243E-002   1.00892978681840       0.960769857373637       0.957281257907911       1.893529718781439E-002  0.962401935668906       0.984884049623692       0.976910575946139      -1.668431257398174E-002  0.965497788350966       2.092240744060740E-002  1.787767514008657E-002  0.964111463646291       0.966105750701352       2.971878611104575E-004 -6.888163358733723E-003
 -1.391664819547751E-002  9.861203008806219E-003  0.963792215763477       0.961590228579171       0.967920170949731      -1.751747229957401E-002  8.967714136497705E-003  0.954482934131937       1.469006509518071E-002  2.222378305005287E-002  2.563975087711796E-002 -1.238185878749513E-002 -1.531983867706080E-002 -1.376652297638029E-002 -1.708732727637719E-002 -1.751516895828472E-002
  0.954499504549420       0.958677128353095      -2.156416209910919E-002  4.128450250794054E-002  3.887415825053448E-002  3.652655177022093E-002  3.473801525237295E-002  6.819477721236326E-003   1.01231413757407        1.01688875459793        1.01884064267903        1.00966784585818        1.01657549625795       0.971670426050350       0.975069066002101       0.960476685367547     
 -2.049347360863368E-003  3.823016314143983E-002  3.544481718826332E-002  3.239843325960692E-002  0.951628279978291       0.947854850990488       2.432430233460958E-002  0.996637484886633       4.284342238746994E-003  3.959352929154983E-003 -1.793473672304105E-002 -1.574170622722517E-002 -1.760960655155778E-002  0.962462022316747       0.958562989610925       0.978003608757242     
  6.252525579834673E-003  4.125199472202218E-003  1.315131350899900E-002  1.166682106191693E-002  0.943302094954227       0.948544898047071      -1.828108043308323E-002 -1.819541387002111E-002 -1.752451913091958E-002 -2.131103561719394E-002  0.964779368443764       4.447855972838908E-002  4.201961311772045E-002  3.908087979664613E-002  1.957044492802837E-002  0.954214401710388     
  0.957629249242035       0.959798207773522       0.950682614699120       0.956368999857428       0.952816819766715       0.949210559584511       8.291756179632194E-003 -1.227435087857476E-002  0.997669397646482       0.974253236832813       0.973041628276887      -2.026921651057279E-002 -2.023559095277574E-002  0.970676971504820       1.615088962170916E-002  1.372954885084781E-003
  0.981360380018897       0.984405019486236       1.663509571488884E-002  2.117692560561001E-002  1.796364240683391E-002  1.458145522080262E-002  4.149278752240003E-002  3.883106514263662E-002  0.978692605224272       0.973493709453810       1.000617946983992E-002  6.698959984836850E-003  0.945102893093506       0.941611708155349       8.986203025889877E-004  1.127171528591249E-002
   1.01412971991577       0.960677019847467       0.956549632930983      -1.922342620127511E-002 -2.145993307697085E-002  0.938021792719857       0.934380968245219       2.316022370397606E-002  0.947153202055989       3.595410813584391E-002  3.275154114881364E-002  2.694768926704063E-002  4.779640941425960E-002  4.540014936459019E-002  4.294678791026920E-002  4.087580783572757E-002
 -1.635208788665018E-004  0.987609947218755       0.990838827338790       0.955047971787538       3.692984657334242E-003 -2.005562421626396E-003   1.01412412229278       2.465668347086651E-002  4.479968395298253E-002  4.218013733892579E-002  3.964721889604967E-002  2.031736361839591E-002  7.464376878436397E-003  1.347977800755020E-002  0.943648002218592       0.940066172543612     
  0.942329864642443       0.987576365669034       0.994031156131776       0.994103294807969       0.945377664046866      -2.265563908669183E-003  0.958647752316187       0.951310427661402       0.947545810954563       0.988563895318361       0.992253009856330       0.938237167147246        1.01068213316989       0.990849337906718       0.934439013443775       0.956569242013083     
  0.954559376209600       0.952413500344231       0.971591993716109       0.945699979899891       0.957492456726289       1.012847803206935E-002  6.524962988417386E-003   1.01642456548798        1.01500433341892        1.01643776189389        1.01867118218700       7.812998979260170E-004 -1.450000899495673E-003  1.092907135204160E-002  4.818456502317518E-002  4.540779178080912E-002
  4.284753111870397E-002  4.135834099288400E-002  0.950215017648537       0.946100293522411       0.930434434215772       2.145244858806836E-002  1.810027517853065E-002  2.715791484851881E-002  0.989507718755368       0.978242562107087       0.982120369115561       0.985856018778269       0.974955540686350       0.974946650751956       5.121952817247943E-002  4.878510199502886E-002
  4.632063556358567E-002  4.394682319998342E-002  4.086707661005435E-002  0.953572283184460       0.955974689361840       1.457702763582233E-002  1.718721924764943E-002  0.961516888235383       0.993181509735395       0.964041304388796       0.960027114276500       0.966594138978486       0.939852902925769       0.998049145272436        1.00104736581601       0.994244095176168     
  0.942260549192400       0.938577037540500        1.00192417142317       0.948584297656467       1.384226307395418E-002   1.01760484681411       2.878754749034710E-002  3.113866765508729E-003  0.936321293944236       0.952529108180275        1.00035547069269        1.00309472854031        1.00622321459374       0.967355435295403       0.944704927519238       0.949600800598117     
  0.945050596207388       6.906882126642937E-003  5.172487271058453E-002  4.880027317531600E-002  4.558931273094089E-002 -9.015506013334101E-003 -1.211421076133534E-002 -1.552191405692994E-002 -5.289103316210544E-003 -7.649081480155439E-003 -3.327649585884746E-003  0.987442993774196       0.979393592025593       0.999388486216782       0.944360536573340       0.936445885491043     
  0.932428612769853       2.519844855573199E-002  2.914322400011863E-002  2.426449101418381E-002  0.996932704324898       0.998279528674370       0.990819066189996        1.01795336314884        1.02003590549620       0.990324869025785       0.995845285124529       0.996969642014204       0.994102210198850       0.984222977853848       0.963000668979361       1.027932617853287E-002
  6.446833507645171E-003  0.934539050093288       0.950618635869193       0.948284062671070       3.189355198711993E-002  3.080156455163953E-002  2.882657037183562E-002  0.941864550501835       0.947214313359235       0.943799235215208       5.477123130924770E-002  5.226006328954855E-002  4.966236673279455E-002  0.983195915162300       0.986750683588073       0.987250962060792     