 VARIABLES = "X" "Y" "RO" "U" "V" "P" "M"
 ZONE T="  0.000000000000000E+000 " N=        9944  E=       19548
 ZONETYPE=FETRIANGLE DATAPACKING=BLOCK
 VARLOCATION=([3-7]=CELLCENTERED)
  -19.9782054645671       -16.7460447536127       -13.5432470514743       -10.4462771124608       -7.39483127129757       -4.39431260318683       -1.43672854734527        1.47853524247441        4.40194279230921        7.38347804238703        10.4122197804982        13.5308676756442        16.7310607632789        20.0189460056259        20.0156650185539        20.0123451374732     
   20.0090067226427        20.0056742799471        20.0022854763303        19.9988742323503        19.9954939648514        19.9920871178897        19.9886881104951        19.9853470049941        19.9820070605281        19.9783478910574        16.7317203104092        13.4557822172063        10.1645634122701        6.87452312340184        3.53259687976399       0.170578499054329     
  -3.16443525887912       -6.48474521199279       -9.79114624567630       -13.0836966857758       -16.3754018560739       -20.0188035791356       -20.0155069002833       -20.0121812769038       -20.0088400757232       -20.0054989473046       -20.0021446450312       -19.9987763328347       -19.9953939522161       -19.9920253568386       -19.9886729196427       -19.9853365630757     
  -19.9819979716434       0.998844132096859       0.997322920229174       0.995806401351296       0.994300405385313       0.992749989640747       0.991138795462961       0.989461985963960       0.987724067627353       0.985924938815522       0.984062279786898       0.982122080062989       0.980112902324389       0.978018545134764       0.975851704354040       0.973608516056607     
  0.971281558839923       0.968868268388274       0.966367805130395       0.963777825838534       0.961098661611318       0.958325294765249       0.955449872184814       0.952461227193539       0.949349886477134       0.946144521271923       0.942823389778664       0.939353839679113       0.935778196866517       0.932084266094876       0.928250493069488       0.924241853054482     
  0.920088931897052       0.915786400261155       0.911320289664964       0.906681550847940       0.901863670313943       0.896860067499919       0.891658106390126       0.886244977985634       0.880612988041583       0.874754350343181       0.868670213907751       0.862353353333577       0.855795831404395       0.848987646482456       0.841919955129594       0.834584293478456     
  0.826974309415553       0.819081595082484       0.810897900264248       0.802414851815269       0.793623608819404       0.784516516819129       0.775084657922378       0.765203620174436       0.754962503511922       0.744349851288410       0.733354951037613       0.721970749216973       0.710184815144461       0.697984436148296       0.685362289483733       0.672306536053569     
  0.658803175545949       0.644844744816542       0.630417666594474       0.615505165808989       0.600096057370031       0.584169632764308       0.567713372891242       0.550711785322434       0.533755356813856       0.516761880332961       0.499699175433669       0.482567502491411       0.465366686928783       0.447446073762038       0.430124393264490       0.413400268106060     
  0.397272151722407       0.381724185004448       0.366671632817301       0.352096203804274       0.337993889766999       0.324373571480171       0.311220229565215       0.298534895679152       0.286318461751294       0.274552557594888       0.263212042405379       0.252249345328194       0.241651764940073       0.231406819694737       0.221507153559618       0.211944566538286     
  0.202707273216542       0.193783927563705       0.185169812300185       0.176848574966196       0.168810423581411       0.161038267868244       0.153525177485444       0.146264665640838       0.139250538536805       0.132476490125097       0.125935537728612       0.119622022976609       0.113530649829825       0.107656026708601       0.101993533553277       9.653871423144109E-002
  9.128730299561223E-002  8.623573473983374E-002  8.138020253533068E-002  7.671687365017281E-002  7.232312784002404E-002  6.809267809045839E-002  6.402709738967481E-002  6.012457160532812E-002  5.638514312394181E-002  5.278690894395886E-002  4.934132838229689E-002  4.604624741094673E-002  4.288405490419091E-002  3.982583785542464E-002  3.686849465321047E-002  3.398946461280877E-002
  3.118910633203098E-002  2.847244409503389E-002  2.584229948796457E-002  2.330260818036101E-002  2.085943377094407E-002  1.852032923187660E-002  1.640171709891028E-002  1.436430695123599E-002  1.242751718532710E-002  1.060993683139568E-002  8.935811677456145E-003  7.342153509460892E-003  5.794240576921971E-003  4.392556977155024E-003  3.129288817390879E-003  2.042192142905287E-003
  1.190069073660307E-003  6.374708414001721E-004  3.939434012282649E-004  3.852893010471425E-004  7.053779327223853E-004  1.381879306671156E-003  2.365102105337406E-003  3.564360385296982E-003  4.908739634648716E-003  6.344248262878502E-003  8.073277379573371E-003  9.887302240811193E-003  1.180277571972590E-002  1.373283998753674E-002  1.570812824958049E-002  1.777747319677893E-002
  1.999219234607015E-002  2.231828537843715E-002  2.476577364511079E-002  2.727456202679494E-002  2.985235961402447E-002  3.254361426885394E-002  3.538821180721163E-002  3.838356707553277E-002  4.151910994175278E-002  4.478274449633571E-002  4.816354893679547E-002  5.164959213443172E-002  5.523746293316101E-002  5.892703050463758E-002  6.271092142243623E-002  6.695143385583069E-002
  7.133707600102025E-002  7.586525069402640E-002  8.053280575679662E-002  8.527072946560452E-002  9.014854037212831E-002  9.519261710740044E-002  0.100400844187950       0.105775307333622       0.111306225333411       0.117013093155310       0.122937019397176       0.129127843632152       0.135598552314933       0.142352274203910       0.149385449112348       0.156699244450044     
  0.164296705928530       0.172178796174246       0.180349418495027       0.188812000395380       0.197570937307725       0.206811615369848       0.216392015529041       0.226317792583923       0.236597924091297       0.247240586583532       0.258252813974021       0.269644857073057       0.281427358450534       0.293607708268380       0.306196589557140       0.319206178530161     
  0.332643813498933       0.346519245885081       0.360845713618831       0.375623327997514       0.390862543852647       0.406569245925182       0.422728758514607       0.439351196551576       0.456379071217190       0.473803970269388       0.491300524942092       0.508662656436578       0.525888851247695       0.542981704790906       0.559945136047670       0.576462614964604     
  0.592511060015519       0.608071268465771       0.623142555698586       0.637727348953944       0.651790249007085       0.665342898941535       0.678400765155496       0.690981886433132       0.703106640545419       0.714826257215326       0.726182434773856       0.737183264308640       0.747837061592598       0.758146055421333       0.768118641011385       0.777763604894062     
  0.787089702717952       0.796019426110399       0.804621459391979       0.812900575804183       0.820862603487116       0.828512125962250       0.835853412802886       0.842893621934403       0.849694926521397       0.856287004103596       0.862672880173904       0.868856274322705       0.874840993118487       0.880630971124333       0.886229454804649       0.891639522135811     
  0.896864598335819       0.901909017885374       0.906780484407790       0.911483546222219       0.916022719113437       0.920210149705244       0.924282032568502       0.928236553742067       0.932076638347414       0.935787522724402       0.939366298880800       0.942819355043943       0.946139070936874       0.949329106210315       0.952404755202486       0.955342175110409     
  0.958148025841999       0.960878336129955       0.963530121780714       0.966101598646706       0.968591558327075       0.970999455614828       0.973326480782578       0.975573687680437       0.977744380152756       0.979842443205802       0.981820012338522       0.983743814912548       0.985599271829106       0.987391093313864       0.989123211394864       0.990796902972824     
  0.992407731527640       0.993956942655432       0.995447017458303       0.996933541623142      -8.654157715967218E-004 -7.096449012100766E-004 -7.644392801708835E-004  0.995080360678277       0.996524719609961       0.995074394226761       0.996335699350934      -2.268416215954272E-003 -2.919819656852926E-004  0.994779009045675       0.995560068920918      -1.911205064763961E-003
  0.993688043968591      -2.198810869163989E-003  0.993240260898562       0.991591366388621      -3.519462048050549E-004  0.991966124383214       0.992950470450527      -2.145132632827940E-003 -3.761321693962150E-003  0.994092115799048       0.994259038978726       0.997969764124892      -1.349179451143768E-003  4.103131763388507E-004  0.990214963729887       0.988444084943015     
  0.986669460147380       0.991061170278982       0.997285951993472       0.992583704493489       0.990385544405305       4.886587080495817E-004 -1.735237612624645E-003 -3.819836811294762E-003  0.991951544999498       0.996543723676551       0.999617170605300       0.997237925197998        1.00029325618376      -3.238658402332939E-003  1.385785405378586E-003  0.995683591986182     
  0.996041336218051       0.998603997571457       0.988661243430277       0.989230654152247       0.987378944229640       0.985464833016465       0.990112425204688       0.991894034699045       1.634765513208518E-003 -3.738580558413016E-004  4.382817010622040E-003   1.00140755544221       0.989654541807584      -5.187804475743297E-003  2.602783835103711E-003  0.990068804898695     
  0.986788368537819       0.988176336718521       2.928409109211038E-003 -3.835480796668685E-003  0.990812069652632       0.999019192683238       0.998494100954160       4.028355871147038E-003  0.988237617205141      -2.524043830362535E-003 -3.637508100814159E-003   1.00231553921735        1.00038820236040       0.993963942399868       0.998104894553752        1.00018267252873     
  0.992857811892296       7.287668270768908E-003 -2.146063905837050E-003  0.998757582070901       0.997917541789851       5.624348631322655E-003  0.984834132694411       0.982859684693927       0.991059055381886       0.997168697883393       0.986085421529224      -5.626901937611783E-003  0.987488955742164       8.925647643122954E-003 -4.949449423355216E-004  6.435271032658790E-004
 -5.244509173174297E-003  0.983369553439692        1.00259941345131       0.986250705879629       0.984044517467988       0.996928394169870       0.994893316236960      -1.493446006300597E-003   1.00318749093141        1.00507156740990        1.00091382239576       0.983950522722746       0.981713831231919        1.00003350513591       0.993359335045048       0.985308362368635     
 -4.698975495462940E-003  5.587605560570358E-003  2.236763127587067E-003  7.320606950081288E-003 -7.028100835317209E-003 -1.314856139838413E-003 -1.561688251292476E-004  8.388621560429906E-004  2.050696086355753E-003  0.993846518255760        1.00177226810168       0.994782028346669       0.987379888309368       0.991667941950301       0.980990691104264       0.978832480999615     
  0.981821889414663       3.713137721433733E-003 -5.417914277705889E-003 -7.265100820999538E-003  0.976682218095577       0.988895866346784       6.023381097162359E-003  0.985096952093869       0.990100289206348       0.992808433713380       0.999548617712856       0.998784620573654       3.844272067231985E-003   1.00452456051030        1.00349113824404       0.995694008022784     
  0.997649544070089       6.096360681310001E-003  0.999145494849288        1.00145210912924       1.066382129196522E-002   1.00208713229812        1.00601803409092        1.00377215476827        1.00637552499948       0.989192324872877       0.992391936038159       0.988224654149389       1.492709252833990E-003  7.836993860835690E-003  0.989136647587433       0.985023863166388     
  0.982366075448819       8.696509710166894E-003 -5.795896640428457E-003 -3.521546649589475E-003 -2.566242083070406E-003 -3.797677209313407E-003  0.990475375714081       0.991593270694256       0.979700961890537       0.977505040030796       0.975123806006811       1.174381115728967E-002  0.991227782537021       0.995137651857845       0.994113000731668       0.996264863216006     
  5.646989785005847E-003  1.372904744189852E-002  0.986834948201381       0.986534353988442        1.00237423026607       0.988416740949201       9.763390934685208E-003  0.986454405155109      -3.796723690722081E-003 -7.761905672605014E-003  0.980496300996493       0.979332974829221       1.261046859510387E-002  0.981110162153810       0.976855573093316      -5.759197933177675E-003
  0.984599313628558      -7.366624362750294E-003  1.067759227866779E-002  0.993756156230811      -2.566310521159641E-003  3.504401147816732E-003  0.974584792340438       1.173418588340457E-002 -6.872587901131703E-005  1.480315762498319E-003  1.575789413406524E-002 -1.016965010056527E-003  7.611392101984651E-003  0.977966976954915      -6.266199180480904E-003 -8.953324839340656E-003
  9.679663150031563E-003   1.00471949414444        1.00761828571606       0.978594623281714       0.976140672262791       0.973025011856405       0.983685368090234       0.981539996287483       0.992840866604849      -1.090793931167998E-003  1.368190699383053E-002 -9.614510086186563E-003  0.975946459049245       0.973592308997094       1.468122412618989E-002  5.264525212192455E-003
  8.440919677487040E-003  1.178273930705994E-002  0.972241599276693       0.969868250930780      -7.942208001672609E-003 -1.011032243548185E-002  6.602815001826008E-004  1.282072164941011E-002  0.982943671466139       0.980131378547748       0.982020589029074       0.979405537771954       0.980041775842357       0.979595798863808        1.00805304441369        1.00478758683557     
 -5.505688705892457E-003  8.838271887031542E-004   1.00132019370246        1.00056680710774       0.984022112419882        1.00339749651591        1.00304453537328       0.971109048208682       1.684556603262517E-002  0.981075374813637       0.982464884125476       1.079251519223806E-002  0.997856143928398       0.988767466839971       0.968544934777685      -3.708736729885034E-003
 -5.137895820133286E-003  0.984716011469849       0.995211824087669       1.502076878074785E-002  0.978734233754234       3.267809343131626E-003  1.791528326816332E-002  1.572452692892531E-002  0.972654939272964        1.00702318536823       0.977759169134625        1.00049446704347       0.999423539341849       0.977580556855150       0.996706866095681       1.310621676445635E-002
 -3.888658806688739E-003 -7.940534898493166E-003 -2.182904911671263E-003 -9.789497475779835E-003 -9.536092224673687E-003  3.243630170594059E-003  0.974781931725026       0.975146032271185       0.972579157255117       1.117753954950951E-002   1.00867276275833       0.969959162207496       0.967491726145261       7.441224248119599E-003  0.970852091076597       0.965003640500990     
  0.962765065913894       8.505160110454846E-003 -7.859387766899486E-003 -1.075793266356950E-002 -1.990555332727504E-003  2.021962356610444E-002  1.800487857853476E-002  0.995584527759737        1.00222439230613      -1.163796679889928E-002  0.982084193654483       0.978906453815893      -2.230348271195228E-004 -6.777545740090129E-003  1.560788111047301E-002   1.00113675533376     
 -1.023789878397926E-002 -1.259852629926107E-002  0.976927957411028       0.976453949944404       9.744506172432155E-003  1.036963681287810E-002  0.986818102271047        1.01014440263223       0.989713613838895       1.533760654450462E-002  2.662156441728030E-003  0.968643255526704       0.966149812165518       0.963514001332894       0.960453765207975       1.729404129329039E-002
  8.442602436155804E-005  0.969885503395246       1.346638564899425E-002  1.912737941920548E-002 -1.203856626060202E-002  0.992606840187366       0.994011134950737       0.996747493906914       7.390677458368081E-003 -6.508213006035999E-003   1.00534759338144        1.00531102285334       0.967058096313669      -5.209633856915357E-003 -4.932711232361536E-003  4.903321574557213E-003
  0.970029110476256       1.231222186312274E-002  0.998347834561788        1.00004039937191       2.262739290117591E-002  2.044351149979514E-002  1.808842626270958E-002 -3.366962424391017E-003  2.151783630950087E-002  0.974309057248738       0.971500752711063      -1.442696342780932E-002  0.987197616997936      -1.014610940953945E-002   1.00978387258925       1.539015329377075E-002
  8.897063692994880E-003  1.968955981434981E-002   1.00394611398870       0.967452000082342       0.964871947491342       0.995389007506059       0.961905691060659       2.504634449652914E-002  5.862157914652585E-003  2.295512781514055E-002   1.00794512803399       7.280473845964633E-003  4.558585741701138E-003  4.251068675619587E-003  1.768832326081851E-002  3.032518728632382E-003
 -8.350750052435931E-003  0.989693309946743       0.984713266238202       0.982704201283569       0.985114107008707       0.987149216492892       0.994280303915462       1.550030907247050E-002 -1.196633040356240E-003  0.965663229452676       2.028773069241352E-002  0.968728359022336       0.990140911344983       0.989155879448807       0.986801756763590       0.984593052358442     
  0.987486506411572       0.988424789099487      -1.213977615363641E-002 -3.201289044546285E-003  0.999566736484774       0.983840514278319       0.967747810999101       0.997221545168009       0.996002108001678       2.742032323620899E-002   1.00743846472399        1.00567205756612        1.00920007907106        1.01089257062104      -1.263199000665362E-002 -1.525404256414596E-002
 -8.006996424457478E-003  2.074177770522661E-002  1.820644544314773E-002  1.543195613246687E-002 -9.607234965365696E-003  0.990021252263889        1.00829239936769       5.859732060690576E-003  0.979849107358008      -6.653925091570525E-003  0.991686446386263       0.992395457015074       0.993556067947049       2.033211303039237E-003  0.971580790917983       1.335433200256164E-002
  1.293607569387344E-002  0.980315412902762       0.969964822837461       0.958594768298009       0.962548923752585       0.959682374348691        1.00346745238763       0.964185109456189       0.967070322079425       0.972945702379089       0.971270224630553       0.974926396660554       0.975841522925503       0.974230263949066       0.972600880635582       0.956717787057098     
  0.953458852033782      -4.733832181535700E-003 -1.238105777031919E-002   1.01138967154341        1.01259354136903       0.981699571927717       0.979134402956625       6.216165135529957E-003  4.554336585482010E-004  1.417961536807880E-003  1.113341455964885E-003 -6.195023602686769E-003   1.01067265250135        1.00636484793291      -9.914565813764997E-003  3.001714127863073E-002
  2.713410720788571E-002 -1.484271831337335E-002  1.002525437956393E-002 -1.508292448955994E-002 -1.802990286914810E-002  0.991306377613114       0.989404676170600      -1.227652672821313E-002 -1.501086001246433E-002  2.632645420508837E-002   1.01030297139848       1.269829942927686E-002  0.985790416506521       0.986379703879294        1.00238509106800        1.00837187010892     
   1.01124166783410       0.987003608256340       0.961370756617138       0.958441658238157       0.955230751400919       0.951720755043035      -2.338421871749811E-003  0.977285717147388       0.984226037492565       0.983641009228371       0.981930800159693        1.00849048330819       0.976809714278114      -1.183705493582238E-002  0.983400162350457       0.966391651711023     
  0.968308340963016       0.969658491014683       0.970830419539146        1.01038626802677        1.01095905120843      -8.269009588448614E-003 -1.775276006992365E-002  0.962957985974067       0.973307820845809       0.970397752302658       7.042114942703938E-003   1.00652130331628      -4.314664723178010E-003 -7.888288573639822E-003   1.01118398004056        1.00353128194665     
   1.00142379361486        1.01218951414487       2.361323215917670E-002  2.896230020302870E-002  2.628243616533573E-002 -9.283627308405750E-003  2.215321065435606E-002  2.392860174209239E-002  2.305417590246953E-002  0.977558103133753       0.976022327273860       4.028359140657035E-003  2.692508707721902E-003  0.998441630378212       9.334097103437636E-003   1.01326263558224     
  0.960437453858638       0.987049181150931       0.992693539826450       0.994546157426510       0.957019383094491      -1.158445238909480E-002 -1.499053356405291E-002  0.963901932806292       0.979533025355297      -1.482232676410492E-002  0.980703333838159       0.983912396257316       0.990266823838057        1.00578721202905       0.972406565432184       0.968591042170217     
  0.965541836427679       0.963269850061675       0.967220123790801        1.01263977276812      -7.449915193746905E-003 -1.090743119834409E-002  1.248905340612289E-002  2.522993014671791E-002  2.114198411977463E-002  1.833784184500141E-002  3.280387877352871E-002  3.033258292009807E-002  2.886745885297278E-002   1.00437794869566       1.535185906057333E-002 -1.760842079107806E-003
 -1.776178597258407E-003   1.01348041320185        1.01578868015591      -1.492474739965456E-002  0.953910489792406       0.950793357633913       3.184903176050295E-002  2.959370177787964E-002  2.736553064312821E-002 -1.246687575455352E-002   1.01314386092933        1.01684056320996       0.974832621031678       0.969411730502500      -5.412321453430823E-003  9.768703395183152E-003
  6.551497555696184E-003 -1.808094117745248E-002   1.01340819714692        1.01451042351109       2.436618296983490E-002  2.099181035840942E-002  0.965210993561253       0.966731751529318       0.968228192149122       0.968415078404267       0.997164870345363        1.00488162607442        1.00761443519597        1.00342957746292      -1.008203826656192E-002 -1.263895984460990E-002
 -1.480457059429540E-002  0.947608039925057      -1.072587463540585E-002 -1.411850087739720E-002  0.974739579334918       0.955399134142222        1.00834965552354        1.01119032567534       0.980443018418345      -1.397880530176125E-002  0.990553739520594      -1.755966465574505E-002 -2.082882326354965E-002  3.473107911847547E-002  3.257523473429663E-002  3.045971828028658E-002
  2.850510062136044E-002  0.971807722262234       0.974601569919384        1.00035551330948       0.999118996973475       2.450777790285517E-002   1.00654613304026       8.917804833200434E-004  6.847638760302383E-003  3.985028294244011E-003  0.966143149030225       0.968517645290312       0.977750028137455       2.412629176745514E-002  1.806446632971549E-002  1.543312855680991E-002
  0.999069923260986        1.00161031481516       0.998152742204202        1.00531837735643        1.01394596718057        1.01414773813604       1.252561252000139E-002   1.00286823682111       3.573683535522879E-002  3.281595393634768E-002  0.952345605914847       0.949086747771077        1.00470017881580       0.945515962345260       3.763111647358193E-002  3.542010108779369E-002
  3.332416943089958E-002   1.00837869455525       0.960149605862179       0.956661453971673       1.854166348079491E-002  0.961781450031350       0.984268105072709       0.976291913567045      -1.661971995537866E-002  0.965052545900086       2.150013980117120E-002  1.843965038036811E-002  0.963490914914753       0.965485281262282       7.557111610834840E-004 -6.511206985297366E-003
 -1.357503269899888E-002  9.555716155175881E-003  0.963352673950014       0.961160499820960       0.967468558128075      -1.734328290678898E-002  9.474454800318256E-003  0.953863548663939       1.523643482731733E-002  2.179020088859004E-002  2.516261647049099E-002 -1.235294397079857E-002 -1.528076633579370E-002 -1.370622649373424E-002 -1.706526899764251E-002 -1.723962968452497E-002
  0.953879452624436       0.958056768050612      -2.135188239560232E-002  4.063238249417214E-002  3.825275150309231E-002  3.593041775731116E-002  3.415899154459411E-002  6.534598136847630E-003   1.01174760385204        1.01631450783589        1.01827026382873        1.00909784114413        1.01601032318980       0.971202936095071       0.974592145711506       0.959855937795593     
 -1.619997627639256E-003  3.891162579158237E-002  3.610929021040853E-002  3.304417043892686E-002  0.951009041756332       0.947235761406356       2.492323647694411E-002  0.996101059741434       4.044815982295199E-003  3.708096979695459E-003 -1.789009397546991E-002 -1.575195579059358E-002 -1.763979057903124E-002  0.961841096811500       0.957941651406370       0.977384028602179     
  6.746712250357504E-003  4.612819634932110E-003  1.280401471367760E-002  1.219296233973672E-002  0.942683073474504       0.948176954087764      -1.798983042635675E-002 -1.787519932703769E-002 -1.726210035850136E-002 -2.105843465456232E-002  0.964158397735383       4.378992648770066E-002  4.135956436359810E-002  3.845282512604510E-002  1.915862193114372E-002  0.953815766462651     
  0.957214283562385       0.959374129003644       0.950301875382266       0.955960396970071       0.952425188542814       0.948836522447589       8.801142592436478E-003 -1.234586329539771E-002  0.997139470735002       0.973633887037934       0.972422159775697      -2.023470292329834E-002 -2.016707322977234E-002  0.970219468895578       1.577983763069879E-002  1.155389004757225E-003
  0.980863983045149       0.983903399929368       1.624611069903086E-002  2.175883385303965E-002  1.852998739649101E-002  1.513282146819182E-002  4.218987068328684E-002  3.951271186032864E-002  0.978204918076921       0.973030964924512       9.681779834879816E-003  6.395977219522391E-003  0.944752058446897       0.941277737970079       6.637749092073060E-004  1.180230519952434E-002
   1.01352916746927       0.960055402002629       0.955927431103274      -1.922088771053419E-002 -2.147912544914718E-002  0.937705267419594       0.934082148839234       2.270598432043597E-002  0.946790309276580       3.661830480490472E-002  3.339612674309884E-002  2.644867379467114E-002  4.707284833677533E-002  4.470455924824797E-002  4.227674986495280E-002  4.022568392750461E-002
  3.006331353209650E-004  0.987096492207224       0.990321770398658       0.954646264278714       3.426833412645198E-003 -2.194879456758166E-003   1.01356364482239       2.525865537367636E-002  4.551104543708859E-002  4.287717603223871E-002  4.033067462513786E-002  1.988629818795947E-002  7.978163469464708E-003  1.311358857904995E-002  0.943301439405236       0.939736157064739     
  0.941712849461674       0.987070406063344       0.993503186949219       0.993583688420536       0.944760967786508      -2.484396833863359E-003  0.958229222890077       0.950925734319628       0.947178575941683       0.987949241304597       0.991639798361223       0.937620119943536        1.01012367933882       0.990339721992387       0.933821669296978       0.955948345341917     
  0.953937652064163       0.951790776648119       0.970972154067517       0.945342379460849       0.957081554505110       9.784037255497429E-003  6.200910821845976E-003   1.01584507647271        1.01441490328253        1.01584623324095        1.01808397335747       5.301584835462656E-004 -1.702105287612845E-003  1.146516097964554E-002  4.890976001773599E-002  4.611729828668233E-002
  4.354519026775719E-002  4.204604318288588E-002  0.949594799398803       0.945479782023526       0.929816404058544       2.203831730873558E-002  1.867160605707961E-002  2.777392302654841E-002  0.988893128071933       0.977624346308714       0.981503386931591       0.985240220031380       0.974336449632358       0.974327445917773       5.046148980343546E-002  4.805678690726288E-002
  4.561856198795326E-002  4.326757949402962E-002  4.022064684879978E-002  0.953177771836609       0.955571452482894       1.513407444935690E-002  1.677886947311297E-002  0.961085907320279       0.992568249871831       0.963605073878959       0.959607715762978       0.966152196815642       0.939234595262221       0.997438765074488        1.00043822022706       0.993731233091053     
  0.941917311470355       0.938250854239466        1.00138718108888       0.947962848681051       1.345578654943573E-002   1.01704669762305       2.941068337106256E-002  2.832373867170203E-003  0.936008996632078       0.951908004408667       0.999829282154922        1.00254832627671        1.00567935461555       0.966734552837317       0.944082939778226       0.949222236974725     
  0.944691680630033       7.426435765856981E-003  5.246418284983491E-002  4.952347756306971E-002  4.629677958875607E-002 -8.637627327027516E-003 -1.175281504437450E-002 -1.516921171138951E-002 -4.883895405996394E-003 -7.247697103198816E-003 -2.895739140236996E-003  0.986944481256182       0.978775638557343       0.998778143355419       0.944007176403446       0.935827160053434     
  0.931809074634838       2.580302242126666E-002  2.976688499319509E-002  2.378940111423319E-002  0.996411975656918       0.997763843336655       0.990316715288759        1.01735730259867        1.01946154824449       0.989710155635294       0.995233648405324       0.996357756313333       0.993488679871908       0.983728242466484       0.962378877988055       9.913358063391000E-003
  6.099847846693140E-003  0.934231193071634       0.949996538247425       0.947660910639203       3.134484181396609E-002  3.026055221531868E-002  2.829868756669907E-002  0.941243441917676       0.946591926468716       0.943175597914494       5.397825255611381E-002  5.149803946480732E-002  4.893081894281642E-002  0.982579102016524       0.986134859842297       0.986634966446296     