 VARIABLES = "X" "Y" "RO" "U" "V" "P" "M"
 ZONE T="  0.000000000000000E+000 " N=        9944  E=       19548
 ZONETYPE=FETRIANGLE DATAPACKING=BLOCK
 VARLOCATION=([3-7]=CELLCENTERED)
  -19.9782054645671       -16.7460447536127       -13.5432470514743       -10.4462771124608       -7.39483127129757       -4.39431260318683       -1.43672854734527        1.47853524247441        4.40194279230921        7.38347804238703        10.4122197804982        13.5308676756442        16.7310607632789        20.0189460056259        20.0156650185539        20.0123451374732     
   20.0090067226427        20.0056742799471        20.0022854763303        19.9988742323503        19.9954939648514        19.9920871178897        19.9886881104951        19.9853470049941        19.9820070605281        19.9783478910574        16.7317203104092        13.4557822172063        10.1645634122701        6.87452312340184        3.53259687976399       0.170578499054329     
  -3.16443525887912       -6.48474521199279       -9.79114624567630       -13.0836966857758       -16.3754018560739       -20.0188035791356       -20.0155069002833       -20.0121812769038       -20.0088400757232       -20.0054989473046       -20.0021446450312       -19.9987763328347       -19.9953939522161       -19.9920253568386       -19.9886729196427       -19.9853365630757     
  -19.9819979716434       0.999677164907265       0.998159798514273       0.996646847446485       0.995144138778736       0.993596848960313       0.991988634947369       0.990314647845848       0.988579367609202       0.986782677380687       0.984922247440737       0.982984070407124       0.980976688922218       0.978883907687765       0.976718408753606       0.974476333330261     
  0.972150269837746       0.969737665377263       0.967237696858223       0.964648043791220       0.961969065657472       0.959195779384848       0.956320371726594       0.953331721325657       0.950220406339519       0.947015154196656       0.943694283823643       0.940225212264452       0.936650327793827       0.932957502868216       0.929125257446969       0.925118654868953     
  0.920968336705068       0.916669037949757       0.912206857268481       0.907572804980787       0.902760417871222       0.897763156832334       0.892568426100348       0.887163449178404       0.881540546967238       0.875691937197479       0.869618745412877       0.863313726072155       0.856768914900049       0.849974280955434       0.842920945000221       0.835600404278744     
  0.828006263182804       0.820130076508073       0.811963560263730       0.803498313279490       0.794725474301469       0.785637373547539       0.776225088296846       0.766364447307482       0.756144356318643       0.745553380587287       0.734580834012419       0.723219686947538       0.711457547275345       0.699281743883902       0.686684985872477       0.673655474775843     
  0.660179253274361       0.646248884118549       0.631850821787546       0.616968319818639       0.601590196863810       0.585695748485013       0.569272417803391       0.552304647062782       0.535381627775676       0.518421176878902       0.501391006598359       0.484291174740261       0.467121272601773       0.449231467174293       0.431937911425622       0.415239097573857     
  0.399133380443105       0.383604853331031       0.368568830162047       0.354006990482122       0.339915304178830       0.326302649898840       0.313154047990655       0.300470584463165       0.288253232994128       0.276483723216320       0.265137015916368       0.254165617975566       0.243556917362693       0.233298525445818       0.223383189654355       0.213802817632622     
  0.204545727115895       0.195600674702978       0.186963062390880       0.178616624405840       0.170551667651417       0.162751169195949       0.155208293951172       0.147916650338041       0.140870139111080       0.134062545959283       0.127486973329205       0.121137851318496       0.115009971612239       0.109098026872964       0.103397483256692       9.790396950910488E-002
  9.261330367691610E-002  8.752200762223381E-002  8.262635779432775E-002  7.792260255957210E-002  7.348895538384170E-002  6.921831412282865E-002  6.511235577974810E-002  6.116934035965692E-002  5.738940524064860E-002  5.375049302512071E-002  5.026427139005754E-002  4.692865000333053E-002  4.372587870543546E-002  4.062671597749653E-002  3.762803367753188E-002  3.470694326214706E-002
  3.186376655618728E-002  2.910355577385041E-002  2.642912281630084E-002  2.384440553785290E-002  2.135550376304080E-002  1.897003712872685E-002  1.680686573318117E-002  1.472385931995110E-002  1.274070608958828E-002  1.087631099780613E-002  9.155491993729397E-003  7.513247486510747E-003  5.912903456412456E-003  4.457331109848357E-003  3.137332041235482E-003  1.990517532983166E-003
  1.076629398604681E-003  4.636381284275637E-004  1.672082378141936E-004  1.076116975781971E-004  3.644180742717925E-004  9.792382510424693E-004  1.904059540284250E-003  3.049972976588079E-003  4.345976295242238E-003  5.737658944083888E-003  7.420867274385552E-003  9.192500273556449E-003  1.106780135751963E-002  1.296102550085147E-002  1.490160238430388E-002  1.693722466810983E-002
  1.911833331719441E-002  2.141144477734502E-002  2.382640742098311E-002  2.630384453190122E-002  2.885124806984459E-002  3.151249431964182E-002  3.432706136116140E-002  3.729245648435628E-002  4.039826338793821E-002  4.363252804390192E-002  4.698443681531411E-002  5.044215654386921E-002  5.400229290358774E-002  5.766470623706065E-002  6.142206646649839E-002  6.563430082040481E-002
  6.999218182332090E-002  7.449314965296910E-002  7.913408924718406E-002  8.384636964173225E-002  8.869912290678815E-002  9.371862276757145E-002  9.890280324982725E-002  0.104253778282604       0.109761843361466       0.115446449293815       0.121348600138053       0.127518036218952       0.133967800665665       0.140701115447921       0.147714531021280       0.155009307561664     
  0.162588577397628       0.170453394017780       0.178607744421454       0.187055141536954       0.195800065470453       0.205027751307289       0.214596535622257       0.224512180560665       0.234783771408144       0.245419598449458       0.256426814995348       0.267815795362562       0.279597313029428       0.291778896480471       0.304371374345449       0.317387078155085     
  0.330833508329597       0.344720587878076       0.359061739570117       0.373857254619813       0.389117785648015       0.404849417469690       0.421037641941133       0.437692781883238       0.454757410430326       0.472223249689721       0.489764217789490       0.507173608800180       0.524449741526105       0.541595054036404       0.558613311617718       0.575186720809481     
  0.591291812285620       0.606909013190924       0.622037348237986       0.636678985133331       0.650798132521690       0.664406243020451       0.677518633681387       0.690153229553787       0.702330328254105       0.714101237237351       0.725507716341799       0.736557788130016       0.747259714507527       0.757615656059477       0.767633980834058       0.777323463539243     
  0.786692861381770       0.795664277030516       0.804306698035705       0.812624916326336       0.820624793742554       0.828310949857696       0.835687694761555       0.842762244483488       0.849597104826655       0.856222136614923       0.862640419356433       0.868855728071887       0.874871921038927       0.880692979005307       0.886322182805358       0.891762633959345     
  0.897017772129078       0.902091940058924       0.906992859039713       0.911725066451617       0.916293056987537       0.920507683748110       0.924606577663997       0.928587858084190       0.932454408651572       0.936191295235644       0.939795514560996       0.943273424917416       0.946617276697731       0.949830684164475       0.952928987562909       0.955888107589377     
  0.958714699189593       0.961465158495700       0.964136436975567       0.966726699791770       0.969234697600497       0.971659855042822       0.974003350651657       0.976266231202671       0.978451814244642       0.980564006398975       0.982554629985045       0.984490863523987       0.986358038047755       0.988160903587509       0.989903427801100       0.991586908309572     
  0.993206898965660       0.994764671700167       0.996262741463578       0.997756999675823      -1.114206584848064E-003 -9.085254460342988E-004 -1.064985434543147E-003  0.995922465671990       0.997364003214502       0.995916479657886       0.997148937494893      -2.536798195441952E-003 -4.368331641806775E-004  0.995585649159654       0.996364735077689      -2.084224358790861E-003
  0.994532697910874      -2.421658461624472E-003  0.994040122587608       0.992382474956446      -7.134357079167800E-004  0.992813970604318       0.993796460870653      -2.463205717762596E-003 -4.006362616765056E-003  0.994892280121632       0.995053034742852       0.998788131937422      -1.467673229895845E-003  3.235343679694065E-004  0.991065676467253       0.989297452805222     
  0.987525338606418       0.991910084458662       0.998096141271380       0.993376269499109       0.991166068846901       6.283172240038621E-005 -2.125090259304244E-003 -4.102917182485808E-003  0.992798767564981       0.997344937762075        1.00043745658368       0.998075555663226        1.00111959073453      -3.386472323899581E-003  1.358368208977101E-003  0.996472826983448     
  0.996881735362556       0.999437982222206       0.989436071455977       0.990082118245047       0.988232843978720       0.986321160812229       0.990896095998906       0.992674793906821       1.155488839001447E-003 -8.211925644292148E-004  3.806645050152063E-003   1.00222532514983       0.990422968984679      -5.448870464097283E-003  2.634091650150550E-003  0.990918614546086     
  0.987551261844357       0.988942777345445       2.399429094834291E-003 -4.168491778628996E-003  0.991660488221351       0.999853494469860       0.999300771579191       4.117254850863378E-003  0.989089523677602      -2.616624703381804E-003 -3.837311939189745E-003   1.00313652049685        1.00119939232109       0.994808024679393       0.998941512022259        1.00101549427725     
  0.993703328085146       7.484293823860079E-003 -2.573241960287979E-003  0.999571177171933       0.998714010630322       5.769719216327798E-003  0.985585088824016       0.983598401827080       0.991827825186397       0.997953604475987       0.986840235871324      -5.921927809542678E-003  0.988246665988927       9.163677399951954E-003 -5.560720404577775E-004  6.408263414298379E-004
 -5.420069573583201E-003  0.984228657048136        1.00341029448812       0.987105015557400       0.984901512101153       0.997767986162374       0.995735866310449      -1.529195251260753E-003   1.00400319623396        1.00588178981253        1.00174274432431       0.984693392068489       0.982444139903759        1.00083531601873       0.994138706422538       0.986055229970598     
 -4.820572017155872E-003  5.762919199320560E-003  1.692707433500240E-003  7.537385853417180E-003 -7.177079260001727E-003 -1.777361916822727E-003 -1.341432369687366E-004  3.435666312674369E-004  2.106807545594863E-003  0.994690481566418        1.00257739980659       0.995558925720111       0.988232089457287       0.992514717568507       0.981852408891119       0.979695951206157     
  0.982681636893451       3.828848949623108E-003 -5.644224491245795E-003 -7.522563734017505E-003  0.977547323691819       0.989654851455167       5.401654095287386E-003  0.985954688624223       0.990859205071591       0.993653822285808        1.00033987017788       0.999564849083324       3.252866878561812E-003   1.00534178245589        1.00431433847768       0.996535756438690     
  0.998488711105711       6.311114844596736E-003  0.999981074336567        1.00228348559552       1.094852374275287E-002   1.00288358421431        1.00683702556060        1.00457560821094        1.00717626689933       0.990042100689684       0.993159778537352       0.988977463429544       1.574193747607979E-003  7.170473459279148E-003  0.989987093160814       0.985878801793766     
  0.983224162785918       8.951770194178959E-003 -6.141127795580141E-003 -3.952761171109863E-003 -2.576751943324890E-003 -3.863943830887668E-003  0.991323482396618       0.992440071236562       0.980562480259033       0.978368243303052       0.975988807342486       1.099638238394162E-002  0.991985295555826       0.995980301935950       0.994957002020129       0.997038268015421     
  5.009413324948793E-003  1.294782420443152E-002  0.987585432198120       0.987278694043001        1.00320266057166       0.989266899831248       9.054572920973791E-003  0.987306925075789      -4.187215539129438E-003 -8.070703529894557E-003  0.981356436568894       0.980048366769378       1.294401774923403E-002  0.981839214268300       0.977553838640045      -6.151552685956988E-003
  0.985337768304428      -7.569178934238457E-003  1.098550868215034E-002  0.994521753246197      -3.044262500243393E-003  3.648546006452790E-003  0.975268436480313       1.097427266271888E-002 -5.798320513856635E-004  9.205066319361815E-004  1.494460850849917E-002 -9.703976135125284E-004  6.929160897664394E-003  0.978668954493956      -6.359772924310120E-003 -9.071590873224891E-003
  8.955543154389647E-003   1.00554440846747        1.00843861058445       0.979455871235162       0.977003527065701       0.973890225818760       0.984541058615046       0.982397853154144       0.993686338880323      -1.617912779937237E-003  1.289363129081315E-002 -9.844905148758644E-003  0.976636868592760       0.974267322035810       1.506113880881116E-002  4.610583096954350E-003
  8.721698749725162E-003  1.101295696765428E-002  0.972909167825641       0.970519261667041      -8.297221992654747E-003 -1.043052485330818E-002  8.478724105797313E-005  1.317724982028875E-002  0.983677274695466       0.980845603757736       0.982741915623984       0.980109692301762       0.980901322071287       0.980454823831600        1.00885867501802        1.00558245554058     
 -5.944034470993245E-003  9.917500776358953E-004   1.00210607842795        1.00134203517021       0.984748445319290        1.00422587589134        1.00387481511945       0.971767678532960       1.726957715701470E-002  0.981785182721003       0.983178674100891       1.112649779970720E-002  0.998625411956021       0.989517515769114       0.969187522723516      -3.694036618845292E-003
 -5.177408615565248E-003  0.985569853966745       0.995974114858188       1.542056259589293E-002  0.979431802871864       2.660383550842002E-003  1.706865506764895E-002  1.490440392764183E-002  0.973521845820727        1.00783608869696       0.978619924153093        1.00132869841014        1.00026058037394       0.978277477113005       0.997547760928512       1.348534585146614E-002
 -4.382367758449187E-003 -8.338154985720124E-003 -2.724899916646306E-003 -1.006383414606996E-002 -9.714023092830036E-003  3.420978025569711E-003  0.975648236785887       0.975828302422262       0.973245163770868       1.153799533137182E-002   1.00948755600230       0.970827196121854       0.968360466150139       6.742527973665313E-003  0.971719027935024       0.965872948652495     
  0.963634767221500       8.813557182997526E-003 -7.923863668967098E-003 -1.084337227545624E-002 -1.918999215182965E-003  1.933934769048220E-002  1.715091098372575E-002  0.996426961430315        1.00305748645333      -1.188791809625415E-002  0.982940507115360       0.979765095587359      -8.137598432454024E-004 -7.238565715893782E-003  1.477995384843532E-002   1.00197242587565     
 -1.060261650618367E-002 -1.293065063760226E-002  0.977618041135512       0.977134848488653       9.003603796301806E-003  9.607379128618865E-003  0.987554603753654        1.01096030408570       0.990458372988346       1.575338863683516E-002  2.038552968239448E-003  0.969510830241770       0.967018053840427       0.964382909627665       0.961323419855800       1.773568324276433E-002
  2.256593681736978E-004  0.970534709615780       1.386240503403335E-002  1.959577145083976E-002 -1.224807692975857E-002  0.993361429975375       0.994762811402196       0.997506080671111       6.675735025832982E-003 -6.521198280919331E-003   1.00617405928040        1.00613973193255       0.967688758978786      -5.718167844935995E-003 -4.892392002972311E-003  4.232837079081173E-003
  0.970895517142868       1.270399917456822E-002  0.999186976659226        1.00087820421814       2.171449148177101E-002  1.955603734807566E-002  1.722699362432807E-002 -3.922540798641996E-003  2.203105206928103E-002  0.974982222120629       0.972157121115304      -1.467264808048897E-002  0.987926617291415      -1.054965081240514E-002   1.01059290421315       1.581937293368320E-002
  9.231778296727413E-003  2.017564348154996E-002   1.00477801952591       0.968319127246947       0.965739684389522       0.996136774163246       0.962774232616469       2.410424241648212E-002  6.109882227186793E-003  2.203578689024075E-002   1.00876881436398       6.549446110132511E-003  3.870931818959244E-003  3.545715595506995E-003  1.814647294934361E-002  3.243006821276404E-003
 -8.829879010943426E-003  0.990429238462921       0.985435020264986       0.983414709695155       0.985832772787756       0.987871323926514       0.995124344332730       1.466498141721552E-002 -1.803153012038549E-003  0.966286521582412       2.079096350482293E-002  0.969594379066188       0.990989146503135       0.990005187474805       0.987653320799543       0.985446376707606     
  0.988337198601848       0.989274682393925      -1.228309456603434E-002 -3.104305836998556E-003   1.00033154422258       0.984546616436128       0.968385986575245       0.998062384887160       0.996844618575358       2.645188123962064E-002   1.00823161959030        1.00645980958894        1.00999850947889        1.01169528030816      -1.300684392976142E-002 -1.559989772299153E-002
 -8.433580108041435E-003  1.984744867428751E-002  1.733830518299427E-002  1.459005677130469E-002 -1.004384457090481E-002  0.990748413293671        1.00911834393754       6.139410620748389E-003  0.980548180398542      -7.176300828091922E-003  0.992432461575415       0.993136878226041       0.994289002092678       1.392744962261348E-003  0.972445489282501       1.256014408821070E-002
  1.213428281053888E-002  0.981006974342298       0.970829428416702       0.959464136565377       0.963147223621467       0.960260640891179        1.00425677967595       0.964794105003726       0.967936212598582       0.973808534796854       0.972133430523830       0.975788644533034       0.976702276181864       0.975091638848545       0.973462959685837       0.957274904981783     
  0.953992434164952      -5.301539574504949E-003 -1.279152391947632E-002   1.01220158405596        1.01340809198834       0.982554993874981       0.979991925497192       6.526478426268424E-003  6.339559481368919E-004  7.577586890658238E-004  4.328814180246931E-004 -6.129719281025101E-003   1.01149455303196        1.00719382874846      -1.040967487301601E-002  2.901554702847705E-002
  2.616779637933710E-002 -1.502227233251716E-002  9.252234918389633E-003 -1.546985170498990E-002 -1.839352281896449E-002  0.992153502167477       0.990253664299356      -1.256205926935160E-002 -1.530877167770458E-002  2.691676496956255E-002   1.01109432994901       1.188962755409322E-002  0.986642669950219       0.987231322858693        1.00315520904258        1.00915786603835     
   1.01202602779275       0.987854495305432       0.961961085549534       0.959011691005427       0.955778586799717       0.952243960410275      -2.966340205628570E-003  0.977963116571924       0.985079246721691       0.984494725379292       0.982785540895470        1.00931794094081       0.977669393964832      -1.228978886978476E-002  0.984253769747250       0.967258432720804     
  0.969172989125963       0.970522068776566       0.971693100873704        1.01120507356235        1.01178297818061      -8.803542853867623E-003 -1.796462070774323E-002  0.963557609408404       0.973970838381858       0.971044318036901       6.295952497265057E-003   1.00730147838425      -4.197433285036981E-003 -7.875699728326878E-003   1.01200962143728        1.00431197866753     
   1.00218402001564        1.01298613408158       2.268695643173220E-002  2.960091851593968E-002  2.687611930398912E-002 -9.246892804399118E-003  2.268256180019907E-002  2.448258287922425E-002  2.359934345952910E-002  0.978230833155094       0.976882210066914       3.306248665612727E-003  2.942348733155950E-003  0.999195901615098       9.692466890566534E-003   1.01408057495683     
  0.961020351991038       0.987760263051507       0.993539449552691       0.995390622935498       0.957889445480134      -1.209213078454735E-002 -1.512700799935584E-002  0.964769108468384       0.980389752258778      -1.523953910702983E-002  0.981386601967166       0.984604623500109       0.990982244396989        1.00661803357329       0.973061222290058       0.969229392026814     
  0.966158788348089       0.963868002201479       0.967846715691388        1.01344564925277      -7.360776754136842E-003 -1.091961528240226E-002  1.167373373652934E-002  2.428683038556725E-002  2.024117615842072E-002  1.746276812744336E-002  3.177302410185308E-002  2.932599276187945E-002  2.787789391496456E-002   1.00514353014283       1.450262916447407E-002 -1.619109586951106E-003
 -1.598810979063572E-003   1.01428120809256        1.01659125947585      -1.537356286990889E-002  0.954780804170779       0.951663892813847       3.253408691892129E-002  3.024740704859560E-002  2.798850083671000E-002 -1.245514926218649E-002   1.01396471197548        1.01765693940809       0.975499708761669       0.970047623172458      -5.278337135784718E-003  8.986573172251214E-003
  6.883539831553541E-003 -1.839080309597297E-002   1.01419735371628        1.01529277051577       2.492681182392033E-002  2.151280156464365E-002  0.966076909493357       0.967596552542994       0.969092140801687       0.969278716826313       0.997907379193825        1.00565535933428        1.00838641950457        1.00418500245765      -1.062869069822714E-002 -1.311709813231064E-002
 -1.528674711836337E-002  0.948478829440406      -1.066761022251675E-002 -1.408307395341284E-002  0.975402159788756       0.956269095745671        1.00917854958210        1.01201724578585       0.981298944186299      -1.401286750197078E-002  0.991401891062736      -1.771292021368119E-002 -2.100825001468234E-002  3.545698304580458E-002  3.327116643278283E-002  3.112890712345188E-002
  2.915098106262858E-002  0.972452934858530       0.975257110590460        1.00110526973155       0.999856921081788       2.357193466017129E-002   1.00730551864868       1.947571497720339E-004  6.088449116567039E-003  3.246178520674624E-003  0.966756515408111       0.969141680186929       0.978416475998351       2.469424261627963E-002  1.853993294654834E-002  1.587924692193218E-002
  0.999909372271669        1.00244741065142       0.998993971394323        1.00607003744949        1.01476801743177        1.01497169614193       1.293833469759159E-002   1.00370303119745       3.467553625254835E-002  3.178506403832160E-002  0.953215965908417       0.949957545389466        1.00553446769256       0.946387235800940       3.839557250373860E-002  3.615246569165536E-002
  3.402888696022908E-002   1.00913130560336       0.961018075910107       0.957530936873060       1.903545250851665E-002  0.962648791591115       0.985121123110791       0.977151267261452      -1.672987045482873E-002  0.965655092189952       2.059075782436061E-002  1.755581326503350E-002  0.964357143705508       0.966350402177162       4.329103909543879E-005 -7.088458004434651E-003
 -1.409914917838953E-002  9.936138119383551E-003  0.963947506185166       0.961741055155964       0.968079662450819      -1.760872172551388E-002  8.685224401526621E-003  0.954733639061748       1.437779413634575E-002  2.233221038217749E-002  2.575693143295038E-002 -1.241108069008334E-002 -1.535547992907415E-002 -1.380805271949428E-002 -1.711870841735947E-002 -1.765904054303221E-002
  0.954749484609329       0.958925473489311      -2.167901277960558E-002  4.143720356345520E-002  3.902034764329779E-002  3.666746591106794E-002  3.487417560269264E-002  6.887018452166811E-003   1.01252279295106        1.01710100196143        1.01905100538297        1.00987816187837        1.01678342002152       0.971836738684126       0.975238923360993       0.960723733010647     
 -2.281870056948163E-003  3.781924378218619E-002  3.504644205487630E-002  3.201354209440199E-002  0.951879647751316       0.948107164473593       2.397533246829627E-002  0.996832713166673       4.342274990175684E-003  4.018437428595246E-003 -1.797423581268713E-002 -1.576184105996923E-002 -1.762551436484150E-002  0.962707949416343       0.958810240314951       0.978244289166173     
  5.977430856990554E-003  3.852135973248667E-003  1.323617005852824E-002  1.137002998641136E-002  0.943555674873005       0.948672062738811      -1.843528407499710E-002 -1.836851578860424E-002 -1.766083586368129E-002 -2.144635041355561E-002  0.965024243459587       4.463655630651973E-002  4.217156726847319E-002  3.922594013582664E-002  1.967200768152827E-002  0.954353697217239     
  0.957775372837258       0.959947594272994       0.950814373002119       0.956511888303557       0.952952511639810       0.949338746465116       8.005259656623144E-003 -1.227433027771360E-002  0.997861544808936       0.974495182201395       0.973283661968297      -2.030719181929092E-002 -2.028579720495222E-002  0.970838450227327       1.624367249328832E-002  1.423169459068646E-003
  0.981538521010953       0.984585161997269       1.672929024038090E-002  2.083916539352145E-002  1.763566973589442E-002  1.426265864984889E-002  4.106741871613052E-002  3.841722112013080E-002  0.978866928793159       0.973656881380454       1.008327729181028E-002  6.768700471921682E-003  0.945222779579739       0.941724275078596       9.510941184494052E-004  1.096905016302076E-002
   1.01435550460778       0.960923192451508       0.956797077758509      -1.925032111089665E-002 -2.148203588474134E-002  0.938126645915787       0.934477859349546       2.327058395252320E-002  0.947277365760960       3.555316402555145E-002  3.236497830914791E-002  2.706718803516184E-002  4.795923424971880E-002  4.555717419178076E-002  4.309826994071758E-002  4.102271492877134E-002
 -4.236644723639719E-004  0.987795271517666       0.991025487204575       0.955187316249449       3.753663608109205E-003 -1.965807935880046E-003   1.01432987968185       2.430279633580017E-002  4.436081905513516E-002  4.175212632216724E-002  3.922928314659415E-002  2.042050887012185E-002  7.171714470962420E-003  1.356647450142988E-002  0.943765106913978       0.940176002905859     
  0.942584649290561       0.987758131794691       0.994222635795382       0.994290843679141       0.945631987077701      -2.219746490042221E-003  0.958794308810385       0.951442472317952       0.947670384921132       0.988799644298554       0.992487448162529       0.938492879742617        1.01088704015515       0.991032451725158       0.934695481767008       0.956817674938711     
  0.954807925656977       0.952662156408454       0.971834180660431       0.945821072634148       0.957635104846121       1.020786966779231E-002  6.597286723487713E-003   1.01663934666875        1.01522403588185        1.01665857906328        1.01888978941019       8.364659024626821E-004 -1.397518791386128E-003  1.061938794716135E-002  4.773235607677768E-002  4.496798301676754E-002
  4.241704232441001E-002  4.093382954451100E-002  0.950466049826965       0.946352215929175       0.930691681045635       2.110881668850626E-002  1.776566451439478E-002  2.679475173170008E-002  0.989743293804353       0.978482348716539       0.982358520018615       0.986092814174572       0.975196679404592       0.975187397037217       5.138693695803286E-002  4.894665433949991E-002
  4.647682128499557E-002  4.409817691546129E-002  4.101121539949657E-002  0.953707830592375       0.956113286792061       1.425106364222088E-002  1.728310610275195E-002  0.961668745935181       0.993415864757871       0.964194188790646       0.960172727078292       0.966748882429611       0.940107744134164       0.998281324535147        1.00127864617351       0.994428405020255     
  0.942375329939410       0.938684150177243        1.00211937014949       0.948834998738840       1.393100314121497E-002   1.01780938603054       2.841667088379449E-002  3.176288017283496E-003  0.936423208728697       0.952778845978014        1.00054566953399        1.00329426438460        1.00642142340095       0.967599133071425       0.944956401766425       0.949729427731004     
  0.945170692000336       6.606718428177390E-003  5.125872433178000E-002  4.834710808529014E-002  4.514886102627908E-002 -9.219074028914720E-003 -1.230887591113689E-002 -1.571417177443559E-002 -5.507870640147517E-003 -7.868315403190596E-003 -3.564404700556201E-003  0.987621168240071       0.979632636928313       0.999620604144497       0.944479194449341       0.936701297574929     
  0.932684767429456       2.483945824345986E-002  2.876798674639280E-002  2.437660766701093E-002  0.997120561786618       0.998464842602790       0.990998653519657        1.01817662539929        1.02024816445555       0.990560316561431       0.996078410535567       0.997202830187447       0.994336537105785       0.984399785522391       0.963245764049927       1.036112123249495E-002
  6.521808107888698E-003  0.934637738274769       0.950868345868659       0.948533829732263       3.202491523501619E-002  3.092972444529568E-002  2.894884382331049E-002  0.942117419742521       0.947464820567236       0.944050255811132       5.494309076696741E-002  5.242609895960389E-002  4.982263504063783E-002  0.983433586687836       0.986987261875023       0.987487368769613     