 VARIABLES = "X" "Y" "RO" "U" "V" "P" "M"
 ZONE T="  0.000000000000000E+000 " N=        9944  E=       19548
 ZONETYPE=FETRIANGLE DATAPACKING=BLOCK
 VARLOCATION=([3-7]=CELLCENTERED)
  -19.9782054645671       -16.7460447536127       -13.5432470514743       -10.4462771124608       -7.39483127129757       -4.39431260318683       -1.43672854734527        1.47853524247441        4.40194279230921        7.38347804238703        10.4122197804982        13.5308676756442        16.7310607632789        20.0189460056259        20.0156650185539        20.0123451374732     
   20.0090067226427        20.0056742799471        20.0022854763303        19.9988742323503        19.9954939648514        19.9920871178897        19.9886881104951        19.9853470049941        19.9820070605281        19.9783478910574        16.7317203104092        13.4557822172063        10.1645634122701        6.87452312340184        3.53259687976399       0.170578499054329     
  -3.16443525887912       -6.48474521199279       -9.79114624567630       -13.0836966857758       -16.3754018560739       -20.0188035791356       -20.0155069002833       -20.0121812769038       -20.0088400757232       -20.0054989473046       -20.0021446450312       -19.9987763328347       -19.9953939522161       -19.9920253568386       -19.9886729196427       -19.9853365630757     
  -19.9819979716434       0.999608371439088       0.998090489381879       0.996577002531567       0.995073739958264       0.993525856717096       0.991917000582870       0.990242317066686       0.988506284025563       0.986708780400289       0.984847470874383       0.982908336033637       0.980899916735699       0.978806002555127       0.976639275021873       0.974395865595032     
  0.972068349729812       0.969654163362619       0.967152472526279       0.964560944026068       0.961879925792693       0.959104418300373       0.956226588033428       0.953235288432567       0.950121071422950       0.946912674104834       0.943588377080581       0.940115542150717       0.936536582331551       0.932839337328159       0.929002279588702       0.924990401724494     
  0.920834358418889       0.916528852837755       0.912059937716433       0.907418582418017       0.902598285532463       0.897592469047968       0.892388486954898       0.886973510423713       0.881339816497548       0.875479579136964       0.869393899413849       0.863075492778349       0.856516356066238       0.849706416797927       0.842636759083677       0.835298847624800     
  0.827686263547931       0.819790538680368       0.811603372442356       0.803116353854108       0.794320618881998       0.785208507571636       0.775771114576580       0.765883987853572       0.755636338056411       0.745016784961838       0.734014716772774       0.722623207200604       0.710829973639414       0.698622475778700       0.685993590307889       0.672931697905186     
  0.659423039261453       0.645460414761583       0.631030525197290       0.616116887374198       0.600708617865226       0.584785313214191       0.568334753914883       0.551341731672402       0.534396538865476       0.517416956529536       0.500370742301131       0.483258026380799       0.466078455749126       0.448182061874624       0.430885506912252       0.414186920622346     
  0.398084306329378       0.382561426654618       0.367533332201809       0.352981456451202       0.338901533921916       0.325302208974673       0.312168303188880       0.299500702412391       0.287300190673040       0.275548347813648       0.264220014270671       0.253267636419363       0.242678503357880       0.232440138124423       0.222545199049174       0.212985513770338     
  0.203749335316119       0.194825362395851       0.186208929671927       0.177883738505128       0.169840053461624       0.162060834950747       0.154539209712430       0.147268750413313       0.140243324537912       0.133456687962548       0.126901918497669       0.120573420317290       0.114465960476566       0.108574209642720       0.102893611474789       9.741977353505026E-002
  9.214849376622052E-002  8.707627291753264E-002  8.219936864480201E-002  7.751401203060629E-002  7.309806988695608E-002  6.884483072523952E-002  6.475594059005900E-002  6.082964262020678E-002  5.706604967765172E-002  5.344317850604051E-002  4.997262537002761E-002  4.665228801190904E-002  4.346447875677495E-002  4.038008017585774E-002  3.739597127982660E-002  3.448937149717838E-002
  3.166060238310928E-002  2.891469267459041E-002  2.625444244510962E-002  2.368377246794501E-002  2.120875393406392E-002  1.883696863399528E-002  1.668657016471330E-002  1.461624876535229E-002  1.264558974937259E-002  1.079339049114722E-002  9.084307386875863E-003  7.453809662963237E-003  5.865595224195477E-003  4.421877928920138E-003  3.113660954874759E-003  1.978435386533485E-003
  1.075599056469834E-003  4.724189859336202E-004  1.836847519774168E-004  1.305428536372832E-004  3.932408401590686E-004  1.011928554322363E-003  1.938860060959103E-003  3.085408994352617E-003  4.380924794970420E-003  5.771288429276109E-003  7.452218980430411E-003  9.220918539005351E-003  1.109269878809502E-002  1.298205274944216E-002  1.491841459256802E-002  1.694940680866207E-002
  1.912536882446041E-002  2.141290603628269E-002  2.382185509381126E-002  2.629300207918202E-002  2.883383652149518E-002  3.148813332246293E-002  3.429527498735951E-002  3.725278223505955E-002  4.035027470837416E-002  4.357583981183653E-002  4.691870314440253E-002  5.036707394199699E-002  5.391757749478381E-002  5.757008478604449E-002  6.131729562844686E-002  6.551817847355434E-002
  6.986435521975870E-002  7.435328653526323E-002  7.898187946816321E-002  8.368169791862511E-002  8.852170335690301E-002  9.352811536878014E-002  9.869888943113139E-002  0.104036150626933       0.109530236203746       0.115200565399311       0.121088060229649       0.127242363442898       0.133676516537233       0.140393766687488       0.147390707507067       0.154668633001601     
  0.162230707366089       0.170078023228653       0.178214602887869       0.186643998791201       0.195370731956260       0.204579720971388       0.214129666563944       0.224026390065733       0.234279036054129       0.244895963121849       0.255884402958433       0.267254811772217       0.279018054865333       0.291181768897193       0.303756897974133       0.316755901272692     
  0.330186428226934       0.344058563538265       0.358385905802839       0.373168952406483       0.388418569738453       0.404141078601093       0.420322231620890       0.436972610835915       0.454035068023232       0.471501577767694       0.489046210301330       0.506462232117667       0.523747904652977       0.540905590323509       0.557938960061352       0.574529743421037     
  0.590654156862703       0.606292300595440       0.621442891445479       0.636107799929270       0.650250882318906       0.663883326679972       0.677020215963526       0.689679271443687       0.701880617544459       0.713675477619247       0.725105534910734       0.736178686481651       0.746903086335768       0.757280790872632       0.767320092933234       0.777029707926754     
  0.786418347628756       0.795407908259048       0.804067484923994       0.812401855915883       0.820416881761405       0.828117187409500       0.835507095861839       0.842593848085333       0.849440070337261       0.856075682650149       0.862503780422315       0.868728158829142       0.874752699110941       0.880581407442611       0.886217591175789       0.891664379967913     
  0.896925243547267       0.902004556783706       0.906910076756949       0.911646373343162       0.916217973741616       0.920435631132216       0.924537191680955       0.928520793655451       0.932389343006230       0.936127920093892       0.939733544375968       0.943212600309961       0.946557359268069       0.949771459919311       0.952870267090972       0.955829718823181     
  0.958656492497565       0.961407004250305       0.964078217694666       0.966668310157224       0.969176044213564       0.971600855983178       0.973943934655595       0.976206336954621       0.978391389079939       0.980503005176956       0.982493030489978       0.984428631711433       0.986295150442226       0.988097340819818       0.989839174117637       0.991521952041385     
  0.993141234686446       0.994698297607450       0.996195658398683       0.997689184094902      -1.098313610249149E-003 -8.991647705870128E-004 -1.043844653650791E-003  0.995851885373379       0.997293628060854       0.995845030011738       0.997081512711083      -2.522608701260776E-003 -4.357316576411664E-004  0.995518911151818       0.996297684026128      -2.081948365190656E-003
  0.994461541847145      -2.412534104464101E-003  0.993973999912403       0.992317098518922      -6.872946683286383E-004  0.992742077971385       0.993724197220775      -2.444696989974584E-003 -3.998013724466508E-003  0.994825794277223       0.994986445739889       0.998719990725289      -1.474029686613544E-003  3.148510936154636E-004  0.990993095715141       0.989224187343680     
  0.987451371982065       0.991837176817625       0.998028363555470       0.993310340737676       0.991101061467328       9.234248225538773E-005 -2.102487645170359E-003 -4.090934623832424E-003  0.992725430064276       0.997277484155996        1.00036867186840       0.998004221895018        1.00105006133971      -3.391325414915010E-003  1.338809260045317E-003  0.996405679368119     
  0.996809279200709       0.999367879832453       0.989371820605546       0.990008604805044       0.988158718692618       0.986246401492236       0.990831336542253       0.992609069309961       1.186628775950946E-003 -7.951572284437727E-004  3.837622600671698E-003   1.00215581454525       0.990358005117958      -5.441213578042220E-003  2.602953207939868E-003  0.990844759109829     
  0.987487685835157       0.988878514814293       2.431053171000945E-003 -4.153151130542147E-003  0.991586224109885       0.999782071167954       0.999232658928543       4.074026888426673E-003  0.989015163010785      -2.630605392795297E-003 -3.834496688696148E-003   1.00306621537292        1.00113058865154       0.994735171053563       0.998869303529414        1.00094335119281     
  0.993629480005144       7.416607852477781E-003 -2.551245537437443E-003  0.999502884128669       0.998646142860955       5.713974129805309E-003  0.985522187186562       0.983536180078302       0.991762250582122       0.997885981937952       0.986776613586660      -5.912209744761994E-003  0.988182317309209       9.085897870471430E-003 -5.724090235069509E-004  6.135178549229684E-004
 -5.424043637001907E-003  0.984153103070983        1.00334072599803       0.987029962935262       0.984825492121404       0.997694732995462       0.995662363015618      -1.553392316202001E-003   1.00393312200640        1.00581139526977        1.00167170431639       0.984630442053328       0.982381916041269        1.00076676127840       0.994072375293963       0.985991473998633     
 -4.833024383608960E-003  5.698149891752350E-003  1.720459081171163E-003  7.463322016748554E-003 -7.188717618181567E-003 -1.754035355249966E-003 -1.694598609944022E-004  3.711517200806590E-004  2.067719080242190E-003  0.994616110174783        1.00250826809242       0.995492031502083       0.988156853534781       0.992439873282372       0.981775479699794       0.979617982063015     
  0.982604438506937       3.777169088502742E-003 -5.641001032997086E-003 -7.519074233249433E-003  0.977468246888874       0.989589882476795       5.430911728530506E-003  0.985880170357640       0.990793751814761       0.993578348696257        1.00027154929667       0.999496725268271       3.279614049935241E-003   1.00527092549639        1.00424284712628       0.996461731199703     
  0.998414465285382       6.234759255774240E-003  0.999908024097757        1.00221048881312       1.085880907500797E-002   1.00281447901186        1.00676504724464        1.00450595015184        1.00710584550124       0.989966700122021       0.993093630869063       0.988912465822544       1.526773851651726E-003  7.197264156299262E-003  0.989912543359047       0.985802439706882     
  0.983146422799945       8.867689067833891E-003 -6.128897125441009E-003 -3.933506565757295E-003 -2.609117428336027E-003 -3.885936846181565E-003  0.991247384379348       0.992363340792845       0.980484415036000       0.978289208937465       0.975908599908203       1.101656188581478E-002  0.991919257076278       0.995905395557968       0.994880815248902       0.996970839975280     
  5.034235301629919E-003  1.296434744135392E-002  0.987520920576904       0.987213949694781        1.00313036347792       0.989190207855740       9.078258083350551E-003  0.987230099685378      -4.169209439466104E-003 -8.064106571317294E-003  0.981278230840156       0.979986989660807       1.284125873957988E-002  0.981777516937632       0.977493091992815      -6.137578908961342E-003
  0.985273802649182      -7.572930185214738E-003  1.088739663581814E-002  0.994455016472370      -3.024312764193294E-003  3.587778765791375E-003  0.975208174989826       1.099005582076916E-002 -5.557728386359435E-004  9.442272910340156E-004  1.495715808249980E-002 -1.014097880167591E-003  6.951363626036131E-003  0.978607558354877      -6.380523822295601E-003 -9.092043693851935E-003
  8.974627080963419E-003   1.00547182615029        1.00836541676037       0.979376879822320       0.976923249264403       0.973807645800158       0.984463119566895       0.982319076490148       0.993608814470380      -1.597783242000826E-003  1.290627073026415E-002 -9.849284176420815E-003  0.976575805989793       0.974206675513010       1.494563076955293E-002  4.630933875165697E-003
  8.628139608606191E-003  1.102555086416743E-002  0.972849357694027       0.970459863109632      -8.288447491387229E-003 -1.042709602803942E-002  1.043027038579102E-004  1.306593882558018E-002  0.983614187998331       0.980783378431690       0.982678594291395       0.980046941096550       0.980822412018365       0.980374887860477        1.00878740042255        1.00551264754538     
 -5.929902113704918E-003  9.351315917834391E-004   1.00203723134557        1.00127337841094       0.984684136659263        1.00415286622370        1.00380105308678       0.971707450483011       1.714162901645095E-002  0.981721574741416       0.983114324424101       1.101893830018238E-002  0.998557441465904       0.989452178889897       0.969127714285315      -3.734954772146058E-003
 -5.207854434684325E-003  0.985491666264116       0.995906814991293       1.529723335719338E-002  0.979368704720298       2.682819199309208E-003  1.707651372343428E-002  1.491288741055776E-002  0.973440197439712        1.00776455423497       0.978539757919230        1.00125471374319        1.00018524600492       0.978215658283363       0.997472035087588       1.336559802946631E-002
 -4.366590871882630E-003 -8.328360344796837E-003 -2.708940765041423E-003 -1.006374227682800E-002 -9.725240900335946E-003  3.348842415473510E-003  0.975568235157303       0.975766817445874       0.973184040653960       1.142108565590537E-002   1.00941499834469       0.970743676648110       0.968275408077028       6.760210614593736E-003  0.971635398018919       0.965786236047340     
  0.963546709646117       8.709856262099318E-003 -7.953470072679318E-003 -1.087330736021696E-002 -1.971799547689332E-003  1.934193285591164E-002  1.715438855718689E-002  0.996349925788823        1.00298243543887      -1.189279341198410E-002  0.982861137550207       0.979683397929576      -7.985971358342092E-004 -7.227528403198555E-003  1.478401544394755E-002   1.00189610466005     
 -1.059707780461665E-002 -1.292998606441708E-002  0.977555670296435       0.977071801696017       9.018345034613011E-003  9.617066954921082E-003  0.987489443314297        1.01088695972956       0.990392342625063       1.562346760173338E-002  2.056578875918219E-003  0.969425913899596       0.966931615493163       0.964294903233950       0.961233279232254       1.760047108983452E-002
  1.568242296079858E-004  0.970473935173491       1.373643430678359E-002  1.945495341920781E-002 -1.225863982764113E-002  0.993294744815043       0.994695605576321       0.997438203549932       6.688755910746517E-003 -6.560298086723025E-003   1.00610052720398        1.00606475443985       0.967628297432156      -5.706273592947543E-003 -4.942180820269993E-003  4.248604301611883E-003
  0.970810685078540       1.257635165079432E-002  0.999110335013697        1.00080064972050       2.171149202370512E-002  1.955421171487963E-002  1.722598117763269E-002 -3.910848429331989E-003  2.187689742669438E-002  0.974920191333360       0.972095378910719      -1.468185174845096E-002  0.987860969462284      -1.054288095496513E-002   1.01052074910892       1.568364833758852E-002
  9.118334003617522E-003  2.002750799184579E-002   1.00470192101240       0.968232777648326       0.965651913598067       0.996068921566800       0.962684188385866       2.409578253454752E-002  6.021149429770096E-003  2.202869536660076E-002   1.00869435381019       6.556896890832524E-003  3.881667668467551E-003  3.551063435209016E-003  1.800444009690711E-002  3.159188731559622E-003
 -8.821977754360331E-003  0.990362799394003       0.985370053777206       0.983349843997321       0.985767346081938       0.987805228913265       0.995045914123657       1.466426851701927E-002 -1.792646119454271E-003  0.966227214122876       2.063573609696196E-002  0.969507960818270       0.990911067857305       0.989927925754413       0.987575574491550       0.985366919504933     
  0.988258515842948       0.989195069096228      -1.230453181677484E-002 -3.166472795055047E-003   1.00026299331171       0.984480879662031       0.968326887758257       0.997984452850080       0.996765182770111       2.643806619974949E-002   1.00816114704777        1.00638987754489        1.00992734905876        1.01162335731143      -1.300424707353171E-002 -1.560182365270901E-002
 -8.423857111419958E-003  1.984134425159081E-002  1.733269343663226E-002  1.458457961002649E-002 -1.003636803702568E-002  0.990681451167667        1.00904270249959       6.039431268443274E-003  0.980484245612539      -7.168365543712671E-003  0.992365745901319       0.993069765473106       0.994221024304746       1.406109308625982E-003  0.972360693048659       1.256921572345943E-002
  1.213837642718052E-002  0.980942129384687       0.970742809609086       0.959370975947180       0.963088025461541       0.960201471832248        1.00418735120521       0.964733864845325       0.967848254031095       0.973723625628338       0.972046452192168       0.975706363310780       0.976619151366187       0.975006446760009       0.973375451450005       0.957215689165543     
  0.953933141228507      -5.294421659562254E-003 -1.278803319840718E-002   1.01212856257872        1.01333421754869       0.982473950181414       0.979908982586627       6.415482776026924E-003  5.544243026336537E-004  7.659027301347434E-004  4.357344766292725E-004 -6.187992733499126E-003   1.01141929867952        1.00711777260998      -1.040535326750876E-002  2.899442559544424E-002
  2.615049422106933E-002 -1.504130063997987E-002  9.255557722949071E-003 -1.547013584440216E-002 -1.839785046163514E-002  0.992074499790779       0.990172979284160      -1.256429646654323E-002 -1.531376570941106E-002  2.673863145219796E-002   1.01102318989274       1.188868970661152E-002  0.986562375574380       0.987150236207458        1.00308599796537        1.00908731392223     
   1.01195485962749       0.987771861377359       0.961900931363792       0.958951492107555       0.955718213727767       0.952183265688371      -2.961872967415856E-003  0.977899131719825       0.984998010666640       0.984413870696014       0.982703656748437        1.00924139731333       0.977585713002834      -1.228625138441947E-002  0.984170946687494       0.967170970925763     
  0.969084474609487       0.970433083514985       0.971603717934084        1.01113093798562        1.01170677381824      -8.799547555516965E-003 -1.798253531513748E-002  0.963496729372404       0.973908137084130       0.970981853238212       6.297991981376624E-003   1.00723138246156      -4.266853211215359E-003 -7.923221627336011E-003   1.01193234797152        1.00424255678628     
   1.00211487980787        1.01291430658585       2.267593128277365E-002  2.940710102113231E-002  2.669416973734921E-002 -9.302386000145118E-003  2.252157589029653E-002  2.431592057649635E-002  2.343179996614757E-002  0.978165916089805       0.976796592910134       3.306749007300703E-003  2.845476383197091E-003  0.999127376732838       9.569573752183732E-003   1.01400557715718     
  0.960959238146639       0.987693449861974       0.993459343699389       0.995308901006665       0.957795911915942      -1.209060551029320E-002 -1.515321853489370E-002  0.964679584130547       0.980305480288372      -1.523938469635759E-002  0.981320766492694       0.984537863885426       0.990914501596639        1.00654118822263       0.972997892789877       0.969167929344206     
  0.966097621929407       0.963805747495161       0.967784405760402        1.01337300435821      -7.427009914381177E-003 -1.096559056269011E-002  1.166818386257589E-002  2.427574752671320E-002  2.023039522473535E-002  1.745221744753494E-002  3.174492370648566E-002  2.930069192432237E-002  2.785025432016076E-002   1.00507384185114       1.449230839612549E-002 -1.691464581198892E-003
 -1.681989616656522E-003   1.01420882695414        1.01651811308142      -1.537357064347447E-002  0.954684640981611       0.951565052728046       3.232478484948111E-002  3.004588319478301E-002  2.779424912605134E-002 -1.250865864409144E-002   1.01388882498437        1.01758054106339       0.975436291091807       0.969984329283465      -5.354124607361234E-003  8.984988549367664E-003
  6.764475225966001E-003 -1.839860072095615E-002   1.01412550602971        1.01522078136917       2.475645374351619E-002  2.134993809772097E-002  0.965986686752214       0.967506053746931       0.969001620099150       0.969186782262059       0.997838758361442        1.00558563582376        1.00831612329128        1.00411527048718      -1.062835447169856E-002 -1.311535125216037E-002
 -1.528730972743313E-002  0.948377015227482      -1.073067295281301E-002 -1.414411466905370E-002  0.975338113601093       0.956173151943876        1.00910087489308        1.01193893982735       0.981212692948307      -1.405773894823241E-002  0.991319631938197      -1.773889823680842E-002 -2.103482533550063E-002  3.523380974583893E-002  3.305565372125843E-002  3.091992269012353E-002
  2.894733466779621E-002  0.972388793474324       0.975192068607399        1.00103608954445       0.999787638803350       2.355500095207278E-002   1.00723526971888       1.935747559604859E-004  6.085892369612272E-003  3.242454182710185E-003  0.966693136828472       0.969077414124596       0.978350445544854       2.451714765245966E-002  1.839055850734318E-002  1.573572314714164E-002
  0.999830585133164        1.00236914491443       0.998913426987351        1.00599981455732        1.01469115324474        1.01489356703701       1.280094372961240E-002   1.00362579040728       3.463968182799356E-002  3.175301818615102E-002  0.953117689218126       0.949856435918986        1.00545606779569       0.946282959529613       3.815904255778268E-002  3.592460218210384E-002
  3.380830508520736E-002   1.00906048304006       0.960925180297532       0.957435100782425       1.887794155178520E-002  0.962555989271948       0.985035856670828       0.977063388216972      -1.676218197314938E-002  0.965590736242141       2.057427323495866E-002  1.753987050076487E-002  0.964264374125121       0.966257879340286       3.772421848093532E-005 -7.086049076235596E-003
 -1.410080900742374E-002  9.804434167863507E-003  0.963883983409793       0.961676699080012       0.968014186171223      -1.761959100361925E-002  8.679532761839803E-003  0.954635834814635       1.436228024500755E-002  2.216028911432888E-002  2.556909500074642E-002 -1.244892557255922E-002 -1.539340156541396E-002 -1.383906114237498E-002 -1.716257261735886E-002 -1.766098547017948E-002
  0.954650349345385       0.958829697781767      -2.169078124488655E-002  4.118637301649251E-002  3.878018414335190E-002  3.643620970962502E-002  3.464777127126285E-002  6.760071600713335E-003   1.01245152489668        1.01702852090111        1.01897813503753        1.00980752509603        1.01671112476629       0.971771500207321       0.975172446050512       0.960627947313211     
 -2.281294903071720E-003  3.777501904987132E-002  3.500597723620148E-002  3.197666936118469E-002  0.951779334855839       0.948003237069449       2.395130794592159E-002  0.996763907341860       4.231804542718367E-003  3.902527628560908E-003 -1.801256402313834E-002 -1.581391091377193E-002 -1.768518244240875E-002  0.962612250682112       0.958711098657206       0.978162960259355     
  5.971650694656803E-003  3.843506518247348E-003  1.309032648428293E-002  1.135999410847514E-002  0.943446667935812       0.948610847448037      -1.843854929769413E-002 -1.837424077736744E-002 -1.766304065305244E-002 -2.145423547050785E-002  0.964928564687943       4.437052264660072E-002  4.191543274106973E-002  3.898081731634210E-002  1.950576854389629E-002  0.954291943540090     
  0.957713979461997       0.959885176231369       0.950752095534908       0.956449168312101       0.952889289998154       0.949274902377574       7.995757509634497E-003 -1.234287114590741E-002  0.997792039513437       0.974407009342066       0.973193838490124      -2.035007042537123E-002 -2.032033191025728E-002  0.970771791816160       1.609190584979611E-002  1.318016348367184E-003
  0.981471714640304       0.984517526867954       1.656889873833367E-002  2.081675399531872E-002  1.761403013692833E-002  1.424142521489560E-002  4.101467126211874E-002  3.836811092464400E-002  0.978799994015370       0.973588945876022       9.943063390152072E-003  6.633679186553730E-003  0.945160846497925       0.941661395857674       8.383777246130217E-004  1.095388400699721E-002
   1.01427590822810       0.960824050430764       0.956694415881509      -1.930136339470007E-002 -2.154124456332690E-002  0.938062576680150       0.934412397434258       2.308902254780137E-002  0.947214412493133       3.550798640371924E-002  3.232406145660374E-002  2.686935945750727E-002  4.767838426540900E-002  4.528608884950317E-002  4.283589410173878E-002  4.076689200501189E-002
 -4.336490674853929E-004  0.987727618481765       0.990956944673888       0.955123177036548       3.630922930865126E-003 -2.064580902205560E-003   1.01425807469555       2.427363249780373E-002  4.429974318178945E-002  4.169470540691063E-002  3.917497862266261E-002  2.024504072735581E-002  7.156633949228718E-003  1.341181877048181E-002  0.943701345790433       0.940111231306426     
  0.942476549920191       0.987689627471810       0.994153973419358       0.994221444462742       0.945527723730598      -2.329547655893345E-003  0.958730733405974       0.951377728358807       0.947605039463254       0.988714980197842       0.992403228650292       0.938380052000812        1.01081601895401       0.990963103799530       0.934578481366969       0.956718463684945     
  0.954705144736444       0.952556020914374       0.971741818330314       0.945756494853329       0.957570007560852       1.005856979818172E-002  6.452819659390274E-003   1.01656674895697        1.01515046606289        1.01658384510211        1.01881530418643       7.170893387655133E-004 -1.519925927495739E-003  1.059824339914858E-002  4.766270466384025E-002  4.490323873897765E-002
  4.235594559107306E-002  4.087257574386890E-002  0.950362589150016       0.946244739343048       0.930569898580755       2.108063747725149E-002  1.773804439885797E-002  2.676421296607516E-002  0.989656689063148       0.978393089844914       0.982270472256952       0.986005614400657       0.975106401646123       0.975095091976843       5.109123429921814E-002  4.866162806603620E-002
  4.620105689749437E-002  4.383033618986285E-002  4.075453963706368E-002  0.953642103805060       0.956046506291061       1.422370682167676E-002  1.711347215576546E-002  0.961605494940318       0.993329744621618       0.964128425446810       0.960106500430011       0.966681938126834       0.939995507966196       0.998199146294765        1.00119705704999       0.994358271777974     
  0.942309922438178       0.938617487796162        1.00204926209061       0.948728275697431       1.376686801166132E-002   1.01773668110295       2.838038296534728E-002  3.046553658009987E-003  0.936357167750020       0.952675757524646        1.00047515717883        1.00322442168567        1.00635072423689       0.967503337610891       0.944846072041887       0.949663049413867     
  0.945103491847579       6.585202156015765E-003  5.117971409898782E-002  4.827358957780920E-002  4.508078467305459E-002 -9.220426912189597E-003 -1.231128415653159E-002 -1.572016911598812E-002 -5.507987399701592E-003 -7.872275038221788E-003 -3.567785850243665E-003  0.987551764951458       0.979541942734487       0.999537177631132       0.944413398963487       0.936585637808136     
  0.932564416337608       2.480438397519167E-002  2.872486519360266E-002  2.418504011332561E-002  0.997050488728853       0.998393869804135       0.990928428620103        1.01809873768338        1.02017480128605       0.990471858867442       0.995994638811983       0.997117105154623       0.994248357854067       0.984331219994024       0.963146473992524       1.020193139993508E-002
  6.366835565296611E-003  0.934569452912552       0.950762021813089       0.948424488269521       3.181081542293510E-002  3.071677531985553E-002  2.873743133240389E-002  0.942005175216861       0.947355889697068       0.943937066463772       5.463208141813971E-002  5.212648051118547E-002  4.953426263419390E-002  0.983344012135486       0.986898341734217       0.987396793027799     