 VARIABLES = "X" "Y"
 ZONE T="  0.000000000000000E+000 " N=        9944  E=       19548
 ZONETYPE=FETRIANGLE DATAPACKING=BLOCK
  -19.9782054645671       -16.7460447536127       -13.5432470514743       -10.4462771124608       -7.39483127129757       -4.39431260318683       -1.43672854734527        1.47853524247441        4.40194279230921        7.38347804238703        10.4122197804982        13.5308676756442        16.7310607632789        20.0189460056259        20.0156650185539        20.0123451374732     
   20.0090067226427        20.0056742799471        20.0022854763303        19.9988742323503        19.9954939648514        19.9920871178897        19.9886881104951        19.9853470049941        19.9820070605281        19.9783478910574        16.7317203104092        13.4557822172063        10.1645634122701        6.87452312340184        3.53259687976399       0.170578499054329     
  -3.16443525887912       -6.48474521199279       -9.79114624567630       -13.0836966857758       -16.3754018560739       -20.0188035791356       -20.0155069002833       -20.0121812769038       -20.0088400757232       -20.0054989473046       -20.0021446450312       -19.9987763328347       -19.9953939522161       -19.9920253568386       -19.9886729196427       -19.9853365630757     
  -19.9819979716434       0.998225750680868       0.996702849286330       0.995184509720014       0.993676574569866       0.992124030102692       0.990510486439099       0.988831089084273       0.987090342004488       0.985288135811750       0.983422140433359       0.981478313746770       0.979465229301761       0.977366650561996       0.975195297605937       0.972947300791817     
  0.970615227058573       0.968196513103532       0.965690327300099       0.963094334201658       0.960408882202659       0.957628961629364       0.954746723701383       0.951751001497633       0.948632329216903       0.945419478306834       0.942090690936100       0.938613278825790       0.935029704144620       0.931327783370231       0.927485956707402       0.923469171747887     
  0.919308121649457       0.914997506655717       0.910523370864843       0.905876686213238       0.901050962566622       0.896039639286600       0.890830087877167       0.885409504426730       0.879770203748792       0.873904404413105       0.867813266283201       0.861489560230986       0.854925341983355       0.848110599375955       0.841036479386314       0.833694509608972     
  0.826078332836477       0.818179537085610       0.809989872015889       0.801500968996843       0.792703996770473       0.783591317272535       0.774154034499901       0.764267705440621       0.754021526114946       0.743404083682677       0.732404717405193       0.721016434332628       0.709226869948059       0.697023386132018       0.684398744542107       0.671341198105488     
  0.657836848042412       0.643878343140993       0.629452227680556       0.614541859412254       0.599136196013313       0.583214683925812       0.566764966240273       0.549771720379247       0.532825222758620       0.515843312625265       0.498793835105445       0.481677047187924       0.464492759392050       0.446591002815617       0.429289076913783       0.412585385265632     
  0.396478173736183       0.380951409189378       0.365920300917958       0.351366434589086       0.337285672849982       0.323686759820387       0.310554589431402       0.297890094335806       0.285694079249180       0.273948130754295       0.262627088474113       0.251683412185387       0.241104380786058       0.230877500230285       0.220995399613995       0.211449871392072     
  0.202229134240112       0.193321850108381       0.184723301775021       0.176417161350901       0.168393652672769       0.160635717281728       0.153136440459505       0.145889352099857       0.138888276125378       0.132126925726661       0.125598339833620       0.119296880078166       0.113217270386241       0.107354139800439       0.101702887673375       9.625907705738060E-002
  9.101846094363428E-002  8.597749127245793E-002  8.113237822358191E-002  7.647930568053224E-002  7.209548330842241E-002  6.787486417925565E-002  6.381902549783244E-002  5.992616393481678E-002  5.619632670421755E-002  5.260767315053554E-002  4.917163805105986E-002  4.588607594785476E-002  4.273343069935564E-002  3.968488873315522E-002  3.673737759891860E-002  3.386843934290296E-002
  3.107846897540583E-002  2.837251387836171E-002  2.575343030445609E-002  2.322518846260969E-002  2.079388059682757E-002  1.846708267061399E-002  1.636058870633636E-002  1.433590322768482E-002  1.241242119192250E-002  1.060869078115132E-002  8.948830219659419E-003  7.370534936149288E-003  5.839849908317258E-003  4.456642140454353E-003  3.213750992730108E-003  2.149241340283638E-003
  1.321851865428669E-003  7.949679130265601E-004  5.754047767432529E-004  5.914164397105570E-004  9.427836470713208E-004  1.648638609948941E-003  2.658701695658205E-003  3.881676855991101E-003  5.246901712896579E-003  6.700746633923895E-003  8.448382074469447E-003  1.027909970953802E-002  1.220992254777279E-002  1.415365494177251E-002  1.614145847305916E-002  1.822261914706402E-002
  2.044877233330684E-002  2.278574688479465E-002  2.524363116600240E-002  2.776211854550542E-002  3.034901078680368E-002  3.304893997576810E-002  3.590190767866887E-002  3.890529531648553E-002  4.204848698517821E-002  4.531934988834890E-002  4.870693881537472E-002  5.219930589520323E-002  5.579304407805689E-002  5.948803206308075E-002  6.327689572343970E-002  6.752234012492521E-002
  7.191243527832876E-002  7.644457906884275E-002  8.111561556897992E-002  8.585649375556238E-002  9.073678654944364E-002  9.578288004664152E-002  0.100992648730192       0.106368170677824       0.111899656400502       0.117606595931329       0.123530084385922       0.129719933664341       0.136189098655835       0.142940678500960       0.149971087914885       0.157281470415540     
  0.164874848854871       0.172752165907335       0.180917305008712       0.189373675568259       0.198125655731327       0.207358456496742       0.216930151917276       0.226846379074048       0.237116096516347       0.247747464360005       0.258747503541517       0.270126450740318       0.281894936273199       0.294060344712757       0.306633352656768       0.319626131095917     
  0.333046022813519       0.346902784346431       0.361209657623441       0.375966779599044       0.391184620108225       0.406869088032696       0.423005563216419       0.439604181772454       0.456607572092613       0.474007365660949       0.491478688383200       0.508815775277422       0.526017120092687       0.543085308424107       0.560024237443557       0.576517810851724     
  0.592542953801812       0.608080463832329       0.623129631111049       0.637692856074808       0.651734773531880       0.665266996607225       0.678304960812286       0.690866674509240       0.702972485199657       0.714673546264589       0.726011494929169       0.736994416312066       0.747630622649366       0.757922352169312       0.767878002249322       0.777506363642213     
  0.786816199048662       0.795730163104394       0.804316850141474       0.812581056685704       0.820528634278383       0.828164193441861       0.835492031855506       0.842519329774312       0.849308180588707       0.855888240943591       0.862262563247022       0.868434890702505       0.874409050338442       0.880188993047884       0.885777978075030       0.891179090969474     
  0.896395757961989       0.901432306937653       0.906296423890359       0.910992638928693       0.915525444343603       0.919707213690917       0.923773785632182       0.927723325875038       0.931558729932178       0.935265223010681       0.938839869054501       0.942289017207970       0.945605024710919       0.948791517502450       0.951863745726161       0.954797868877748     
  0.957600519121374       0.960327642818655       0.962976241472300       0.965544517880974       0.968031252832173       0.970435892567569       0.972759619474640       0.975003482462665       0.977170779498369       0.979265390504596       0.981239538995607       0.983159846373394       0.985011764919902       0.986800003867529       0.988528495796683       0.990198524021326     
  0.991805672493447       0.993351196216804       0.994837582947612       0.996320285745712      -6.718812896260169E-004 -5.389474838015491E-004 -5.463284664229195E-004  0.994456476175510       0.995901973737982       0.994448634351956       0.995726067280528      -2.064569225286655E-003 -1.446665272002534E-004  0.994172609568681       0.994953468852535      -1.749889289799113E-003
  0.993062217001787      -2.015684271138879E-003  0.992636899209533       0.990991703588728      -1.050316908983473E-004  0.991337696141816       0.992321733442619      -1.918354343159992E-003 -3.567064701853440E-003  0.993487850163086       0.993656069955549       0.997357173471228      -1.210652799801856E-003  5.337425654923519E-004  0.989583997136562       0.987810510493312     
  0.986033144783941       0.990429997796416       0.996676400280499       0.991982450705670       0.989789000616426       7.652817295453792E-004 -1.475678969723710E-003 -3.608516381140370E-003  0.991319993877159       0.995937227463843       0.999002780384074       0.996613737133468       0.999675729719997      -3.086113300328007E-003  1.486013812961054E-003  0.995080805103268     
  0.995414029265453       0.997983183110805       0.988067571002817       0.988597139300066       0.986742989566592       0.984826262721356       0.989515785589032       0.991295959167783       1.935423113381416E-003 -8.835722480484841E-005  4.725249923909197E-003   1.00079270536003       0.989060769245860      -4.985798916197685E-003  2.681182402314209E-003  0.989435113534577     
  0.986198552725512       0.987584368636021       3.250807070798515E-003 -3.601642283812507E-003  0.990178029189673       0.998395875439090       0.997884903642349       4.086327102785722E-003  0.987601908095501      -2.393870024370766E-003 -3.463052870905321E-003   1.00169838548910       0.999776508865781       0.993334558279375       0.997479351244626       0.999558548855267     
  0.992225815491112       7.309731154780442E-003 -1.870053007117751E-003  0.998146080078431       0.997311597034507       5.663138237135944E-003  0.984248027278461       0.982277223311852       0.990464093371121       0.996566290869142       0.985497125269636      -5.409720775145667E-003  0.986898696249317       8.934692506457047E-003 -3.793365774530869E-004  7.368251800181497E-004
 -5.078807343807484E-003  0.982727643886333        1.00198656349689       0.985612295833987       0.983402446445853       0.996299814971335       0.994263154047307      -1.385379829431353E-003   1.00257236094680        1.00445764481546        1.00029291057922       0.983365884391003       0.981132940092418       0.999424942304399       0.992760478431764       0.984721468331088     
 -4.555276322752811E-003  5.618276314890648E-003  2.564372732363121E-003  7.337497484239608E-003 -6.871669285265798E-003 -1.023306072808479E-003 -6.968556363236103E-005  1.145539482754854E-003  2.122504304097183E-003  0.993214086662207        1.00116182606787       0.994182871871361       0.986742030596068       0.991033379650495       0.980343751926118       0.978181643585718     
  0.981175384828429       3.764035733008845E-003 -5.230871371890353E-003 -7.063736895712106E-003  0.976027177471046       0.988304232510042       6.384538584240944E-003  0.984458429918131       0.989507877843039       0.992173248166509       0.998943404655179       0.998182758704675       4.191618556692580E-003   1.00390771475319        1.00287133167916       0.995063139375223     
  0.997019301925418       6.116006642430817E-003  0.998518771929409        1.00082701118061       1.065874784422177E-002   1.00147927302001        1.00539886462191        1.00316140779627        1.00576449300513       0.988555261101762       0.991796254395734       0.987634395463995       1.557826485302358E-003  8.216073789974769E-003  0.988501126752064       0.984382057616494     
  0.981719266072159       8.701802044293005E-003 -5.556443173515943E-003 -3.244163503302625E-003 -2.465459009041939E-003 -3.675752561947888E-003  0.989837682596527       0.990955033634327       0.979051164613535       0.976851554418869       0.974465821224830       1.215393088031639E-002  0.990634836648854       0.994504757919474       0.993477154643452       0.995665833135882     
  6.013047642727571E-003  1.415158247248768E-002  0.986245997173172       0.985946424469252        1.00175134451716       0.987776811409806       1.015891480344604E-002  0.985812910613875      -3.537194269163543E-003 -7.538112829550388E-003  0.979847077875510       0.978756333724239       1.259114094874866E-002  0.980530468308146       0.976283050057415      -5.499115857965832E-003
  0.984013869701235      -7.188291425627468E-003  1.066735249658616E-002  0.993160161346138      -2.268852921872148E-003  3.547782516236163E-003  0.974015575660374       1.214743572910697E-002  2.437755532617406E-004  1.813304872893936E-003  1.619188945597799E-002 -9.370105831603778E-004  7.995087487697857E-003  0.977392798863037      -6.131720326697819E-003 -8.807393352758658E-003
  1.007949662141827E-002   1.00409735682093        1.00699682467091       0.977942724647409       0.975484393069842       0.972360921730942       0.983039612380102       0.980891006991037       0.992201917288289      -7.725815174883814E-004  1.410548004883681E-002 -9.423327475741854E-003  0.975374918347080       0.973024149380749       1.464872036791631E-002  5.635641751057571E-003
  8.440595251357454E-003  1.219858714383761E-002  0.971675796067338       0.969305796420054      -7.698384091417584E-003 -9.881206345800864E-003  9.984933329929234E-004  1.279641874737648E-002  0.982360654509280       0.979553603701819       0.981439763045840       0.978829071453830       0.979391313398275       0.978943465726106        1.00743927567934        1.00417919246014     
 -5.225977133878588E-003  9.422422960121229E-004   1.00071574279979       0.999965627733777       0.983438856384387        1.00277345468809        1.00241857711150       0.970544353278012       1.680081992448387E-002  0.980496639008198       0.981884396180271       1.077635080952322E-002  0.997257498613844       0.988177345153093       0.967983540308986      -3.614995339785538E-003
 -5.024128695152032E-003  0.984070915444098       0.994615921608974       1.498421518910078E-002  0.978158724755003       3.620321668123406E-003  1.836084722679995E-002  1.615932178873898E-002  0.971991356768963        1.00640670064728       0.977104953541658       0.999866627229536       0.998792300093038       0.977006764250786       0.996073282392584       1.307692023147127E-002
 -3.585454160961639E-003 -7.678490623486836E-003 -1.859626594187784E-003 -9.579860677581575E-003 -9.366425289982475E-003  3.278664256601990E-003  0.974123371531975       0.974575507855739       0.972012157422798       1.115507356091068E-002   1.00805414711198       0.969289289691473       0.966816713891016       7.829845537186849E-003  0.970183403385687       0.964323192578273     
  0.962080188124712       8.498514441850787E-003 -7.734244795073964E-003 -1.062300764391086E-002 -1.916945467978524E-003  2.067652011305300E-002  1.845123796825779E-002  0.994947983248266        1.00159526036873      -1.143800456714331E-002  0.981435048778408       0.978250855683802       1.200762494833233E-004 -6.488846659416856E-003  1.604370621822222E-002   1.00050452067525     
 -9.989898772579558E-003 -1.236412561704093E-002  0.976354845371500       0.975882031910789       1.014935494243722E-002  1.078101415221654E-002  0.986231412774694        1.00952427959396       0.989123824090703       1.529789670247306E-002  3.019800301883206E-003  0.967970508072753       0.965472206980298       0.962831221198756       0.959763876902379       1.724587364057436E-002
  1.346824969010006E-004  0.969322011869463       1.343323036941636E-002  1.907059681471731E-002 -1.185492643681620E-002  0.992013741953513       0.993418139911269       0.996151866183262       7.784024812338383E-003 -6.402336233020037E-003   1.00472341862632        1.00468377775549       0.966498290207759      -4.901170583801363E-003 -4.846028791451334E-003  5.279468877656862E-003
  0.969358328256351       1.228196221286883E-002  0.997713521194417       0.999405293510606       2.309497098801634E-002  2.090107818272689E-002  1.853558091043434E-002 -3.039291579740932E-003  2.144914481208452E-002  0.973739736735198       0.970935031122503      -1.422793169939531E-002  0.986612113965346      -9.881779535147827E-003   1.00916775692549       1.534785622846607E-002
  8.884281023649755E-003  1.962929693010432E-002   1.00331585540805       0.966776685747660       0.964192359112030       0.994796318372311       0.961219460283892       2.552318727928073E-002  5.874440470418576E-003  2.342318463007055E-002   1.00732058674722       7.678018942551867E-003  4.939767076484909E-003  4.637272804257842E-003  1.763685177646699E-002  3.059338292399913E-003
 -8.055178918258712E-003  0.989105217640878       0.984130254408926       0.982123906680922       0.984531321199461       0.986564917508499       0.993640638570719       1.593682088892417E-002 -8.485919873094979E-004  0.965105648414201       2.022397435412236E-002  0.968054775930283       0.989499448442963       0.988515303859271       0.986158946148334       0.983945862668232     
  0.986842474269622       0.987779643746487      -1.198207833776037E-002 -3.134143019437131E-003  0.998968604653128       0.983260429317360       0.967187865010263       0.996584365154850       0.995361773193249       2.790524664186422E-002   1.00682968606011        1.00506561687049        1.00858874706180        1.01027884739858      -1.237977178369988E-002 -1.501379502078404E-002
 -7.732789254100013E-003  2.119994056595830E-002  1.865401661741638E-002  1.586879915263859E-002 -9.329152169583747E-003  0.989434838831211        1.00766528579145       5.864163434153817E-003  0.979272358359371      -6.340753064392392E-003  0.991095494322635       0.991805234561069       0.992967189145133       2.396094891059586E-003  0.970912433363759       1.377862475942409E-002
  1.336111753527571E-002  0.979739496756274       0.969293089988758       0.957899758046053       0.961995689050350       0.959132515946711        1.00286121515358       0.963629362088347       0.966394055895861       0.972279558104093       0.970599981126702       0.974266173773301       0.975181166779563       0.973565442757718       0.971931431437196       0.956171396427481     
  0.952916238994225      -4.402552213749322E-003 -1.211411942683558E-002   1.01077138152167        1.01197316963200       0.981047879540731       0.978477507479032       6.213043544726783E-003  4.946429345334037E-004  1.786952977178865E-003  1.488516291639962E-003 -6.115346696730251E-003   1.01004767597979        1.00573589389295      -9.613218750541240E-003  3.051187064285467E-002
  2.761618542079630E-002 -1.466982271236073E-002  1.043812718192826E-002 -1.482582503170653E-002 -1.778233655244072E-002  0.990664001734228       0.988758437867841      -1.206163853715689E-002 -1.479035061157801E-002  2.623792935378463E-002   1.00969388825613       1.312375576725086E-002  0.985142479324008       0.985730937162015        1.00178467979694        1.00776517192661     
   1.01063473619807       0.986353097504285       0.960818349693247       0.957892745416989       0.954685550361486       0.951179580442527      -1.983764415921796E-003  0.976713698952012       0.983575792522253       0.982991007607852       0.981278204864955        1.00786149460196       0.976149427253383      -1.155293010142210E-002  0.982747103881545       0.965714645745155     
  0.967633356830143       0.968984598234570       0.970157417549953        1.00976399624182        1.01033199282893      -7.951917398050486E-003 -1.756634987123647E-002  0.962403558687298       0.972739942045843       0.969833393684184       7.443469262473350E-003   1.00591690764556      -4.252873520966522E-003 -7.789940712273928E-003   1.01055481272805        1.00292756574644     
   1.00082627753265        1.01157789132579       2.408205433273193E-002  2.886167748245191E-002  2.619436544503692E-002 -9.192376179274707E-003  2.208137121748999E-002  2.384932460093608E-002  2.297906898546293E-002  0.976986406029093       0.975358585845716       4.419340109028015E-003  2.708883398298853E-003  0.997846445947140       9.316063793863535E-003   1.01263952232976     
  0.959885938396299       0.986466944310429       0.992050193201607       0.993901438296744       0.956320147157388      -1.127866907161387E-002 -1.483426699929948E-002  0.963220212296852       0.978874785750315      -1.455292011259729E-002  0.980128563305443       0.983334819897864       0.989682704083576        1.00515633591237       0.971839925402813       0.968029032391373     
  0.964984061102150       0.962715056722501       0.966659822762584        1.01202404113336      -7.377036452387297E-003 -1.079858209419590E-002  1.291500367714531E-002  2.570574413407398E-002  2.160036159159387E-002  1.878572476364814E-002  3.330692281102585E-002  3.082702977448556E-002  2.935347173269363E-002   1.00377830226895       1.578927579006839E-002 -1.708710615515292E-003
 -1.734379963624199E-003   1.01286672141105        1.01517343097685      -1.464267283895235E-002  0.953204181014373       0.950080081938523       3.173695370174072E-002  2.949047202310713E-002  2.727122620571589E-002 -1.236539164977990E-002   1.01251846022522        1.01621629346540       0.974263298018871       0.968848987090749      -5.354814774985305E-003  1.018303247084296E-002
  6.543068664887523E-003 -1.785520672479528E-002   1.01279895828649        1.01390319731447       2.428604876916431E-002  2.092446376627048E-002  0.964530950887814       0.966053570875357       0.967551581399903       0.967737394200085       0.996572805576266        1.00427956768511        1.00701224389388        1.00283281237424      -9.761049653889279E-003 -1.234490877635186E-002
 -1.450932061662312E-002  0.946887282505382      -1.064077106552713E-002 -1.402429191786696E-002  0.974170743661792       0.954696456503064        1.00771852534673        1.01055929030877       0.979782827969298      -1.386070929089436E-002  0.989905799559145      -1.739624605171797E-002 -2.065429318391580E-002  3.460901858219183E-002  3.246143902878281E-002  3.035349439976984E-002
  2.840566830479017E-002  0.971242542093383       0.974033619746131       0.999760897028024       0.998527565944002       2.497736855639840E-002   1.00594770767995       1.272028612482772E-003  7.252241310084642E-003  4.380956976472592E-003  0.965584899872938       0.967956834002136       0.977179029134153       2.404639041799178E-002  1.800950601746958E-002  1.538772081224879E-002
  0.998432185674781        1.00097450802361       0.997511585722951        1.00472222269853        1.01331883717509        1.01351823888114       1.249145584814105E-002   1.00223499940018       3.624820398238758E-002  3.331673775809868E-002  0.951636786462342       0.948370795025911        1.00406554745550       0.944792122393221       3.749971287440719E-002  3.529729067652833E-002
  3.320891052172000E-002   1.00778171157709       0.959458546328537       0.955961977474325       1.848306903563151E-002  0.961094180066764       0.983612136461284       0.975625572579785      -1.647295959199944E-002  0.964496083559758       2.195902949947833E-002  1.888833731520620E-002  0.962806724450107       0.964803981866555       1.140345843726342E-003 -6.177471972176028E-003
 -1.326343216944764E-002  9.532640840348289E-003  0.962798019056333       0.960608395921716       0.966909970794248      -1.713561237114239E-002  9.889757519883384E-003  0.953158182612697       1.567507112063353E-002  2.171847223051635E-002  2.507686737588910E-002 -1.222701886676514E-002 -1.514749683513716E-002 -1.356354315757118E-002 -1.693912649871678E-002 -1.696950847002730E-002
  0.953174623731884       0.957361290385475      -2.111892853770777E-002  4.049126215812292E-002  3.812131929035564E-002  3.580699008369161E-002  3.404178555525779E-002  6.521249964516275E-003   1.01114339588482        1.01570540629776        1.01766260717838        1.00849276532562        1.01540569726898       0.970639620463634       0.974025380367394       0.959164112855615     
 -1.253115635425274E-003  3.943118557354727E-002  3.661861427038549E-002  3.354207559296134E-002  0.950298159681075       0.946516999698129       2.539396123386368E-002  0.995511761770397       4.047183033335309E-003  3.707583298707498E-003 -1.775261833984236E-002 -1.564162561422661E-002 -1.753706199244967E-002  0.961152427701954       0.957245034912964       0.976727743008775     
  7.153939002417382E-003  5.015341769114223E-003  1.276572518775932E-002  1.261982847166040E-002  0.941953500084838       0.947640292030915      -1.770950574143421E-002 -1.757647966672546E-002 -1.700029354174244E-002 -2.080120451281662E-002  0.963472502718839       4.363880836487604E-002  4.121735764955844E-002  3.832079779294141E-002  1.909599039178631E-002  0.953271972521237     
  0.956666542793097       0.958823873942542       0.949762345195950       0.955414058661781       0.951883066772471       0.948298724613366       9.217347503499588E-003 -1.226423579079266E-002  0.996552188840910       0.972964583096521       0.971750425982532      -2.010078749593400E-002 -2.001605153279523E-002  0.969658801111483       1.573103564123359E-002  1.168183690607546E-003
  0.980290616914496       0.983327778326603       1.619322369787489E-002  2.221880335854693E-002  1.897999962024178E-002  1.557324471516982E-002  4.271706431220004E-002  4.003068315819552E-002  0.977634427815457       0.972468336801556       9.653772111091969E-003  6.377705755307587E-003  0.944219300145583       0.940748887119563       6.717331090386351E-004  1.223084612503879E-002
   1.01289684951572       0.959361835318132       0.955226086509646      -1.910257927575630E-002 -2.136935805885349E-002  0.937180558238479       0.933561760062533       2.262933211366758E-002  0.946255009342056       3.712583956920817E-002  3.389192883962655E-002  2.635743396749116E-002  4.691226590168667E-002  4.455254926250765E-002  4.213279840279734E-002  4.008822108631937E-002
  6.881472435333112E-004  0.986516651925855       0.989740039495901       0.954101623277573       3.422465750084279E-003 -2.168178701689586E-003   1.01296163915290       2.572986348167182E-002  4.604498493057486E-002  4.340265778997320E-002  4.084804681738121E-002  1.981916059611895E-002  8.395997297328348E-003  1.307060279766436E-002  0.942770035475130       0.939208763669590     
  0.940979530478808       0.986492769335197       0.992917264413643       0.993000470202398       0.944034213254309      -2.468025644495194E-003  0.957680233968030       0.950385428800802       0.946642665636960       0.987296344722559       0.990989613913968       0.936877420847218        1.00952331133258       0.989760299283410       0.933071108047703       0.955248170838398     
  0.953232811773057       0.951081790307102       0.970296810644045       0.944808621098965       0.956534507368177       9.750663172294085E-003  6.176752540422002E-003   1.01523328533915        1.01379685297081        1.01522555300589        1.01746596543730       5.330100065547329E-004 -1.697278377973669E-003  1.189582225543203E-002  4.945001165100518E-002  4.664861943390846E-002
  4.406976909070574E-002  4.256382491881448E-002  0.948881116857615       0.944758210937447       0.929057392841437       2.249924056609570E-002  1.912323374369041E-002  2.825400145841737E-002  0.988238039754575       0.976958007349181       0.980841806168804       0.984582234957825       0.973666024632422       0.973655321753376       5.029160950727078E-002  4.789578934587679E-002
  4.546559956637227E-002  4.312177132869295E-002  4.008538762453168E-002  0.952635066781597       0.955026520642515       1.557658639676683E-002  1.672127043526983E-002  0.960533650992728       0.991915818096407       0.963050944780475       0.959058327117530       0.965596225439750       0.938496282693222       0.996794657990880       0.999796157457919       0.993150191331791     
  0.941387125811594       0.937725018580008        1.00079664608890       0.947246457584826       1.340754843400217E-002   1.01644494135469       2.989369666905262E-002  2.823855646968701E-003  0.935485987768985       0.951199053524862       0.999242822943074        1.00195415304702        1.00508554355503       0.966051450890214       0.943359809588523       0.948683710202067     
  0.944158264318642       7.846537997208230E-003  5.301060963934267E-002  5.006090983042594E-002  4.682548441654789E-002 -8.303316173948602E-003 -1.142880867822054E-002 -1.485043262958034E-002 -4.532339574604891E-003 -6.898731215119473E-003 -2.527604504137106E-003  0.986369123664652       0.978109007965414       0.998132553862055       0.943474723228432       0.935082715150582     
  0.931056559154253       2.627416262953071E-002  3.024807943290796E-002  2.370775148641362E-002  0.995827930122619       0.997181294523090       0.989739602799941        1.01673006084698        1.01885143534533       0.989053044959990       0.994586092794336       0.995707705815193       0.992833847288801       0.983154603370344       0.961688063127084       9.874121085044093E-003
  6.069261042722325E-003  0.933710169674870       0.949283928210165       0.946944812512460       3.123638167635214E-002  3.015566680482045E-002  2.820016694020537E-002  0.940513012708555       0.945873743097043       0.942451112687068       5.379897574939285E-002  5.132781459359437E-002  4.876965186063649E-002  0.981916542046057       0.985475152138140       0.985973643324361     