 VARIABLES = "X" "Y"
 ZONE T="  0.000000000000000E+000 " N=        9944  E=       19548
 ZONETYPE=FETRIANGLE DATAPACKING=BLOCK
  -19.9782054645671       -16.7460447536127       -13.5432470514743       -10.4462771124608       -7.39483127129757       -4.39431260318683       -1.43672854734527        1.47853524247441        4.40194279230921        7.38347804238703        10.4122197804982        13.5308676756442        16.7310607632789        20.0189460056259        20.0156650185539        20.0123451374732     
   20.0090067226427        20.0056742799471        20.0022854763303        19.9988742323503        19.9954939648514        19.9920871178897        19.9886881104951        19.9853470049941        19.9820070605281        19.9783478910574        16.7317203104092        13.4557822172063        10.1645634122701        6.87452312340184        3.53259687976399       0.170578499054329     
  -3.16443525887912       -6.48474521199279       -9.79114624567630       -13.0836966857758       -16.3754018560739       -20.0188035791356       -20.0155069002833       -20.0121812769038       -20.0088400757232       -20.0054989473046       -20.0021446450312       -19.9987763328347       -19.9953939522161       -19.9920253568386       -19.9886729196427       -19.9853365630757     
  -19.9819979716434       0.999666119775023       0.998148598442608       0.996635355907106       0.995132224755444       0.993584364191211       0.991975414287736       0.990300510658687       0.988564122883826       0.986766122435882       0.984904166735532       0.982964224430881       0.980954833765014       0.978859771247232       0.976691721661280       0.974446813249924     
  0.972117616799686       0.969701568201690       0.967197836860959       0.964604094000286       0.961920696544305       0.959142651444246       0.956262130840963       0.953267992468531       0.950150796100673       0.946939325445937       0.943611860971372       0.940135755808866       0.936553486137507       0.932852903057994       0.929012482753254       0.924997211861085     
  0.920837794611059       0.916528950072316       0.912056738461862       0.907412138548178       0.902588657241394       0.897579721197308       0.892372681608671       0.886954703243019       0.881318055542142       0.875454900307094       0.869366326278277       0.863045028273556       0.856482978995357       0.849670078519805       0.842597382450196       0.835256326422911     
  0.827640463620479       0.819741298210255       0.811550504059958       0.803059647399613       0.794259844662361       0.785143420918569       0.775701459679101       0.765809444761953       0.755556632084279       0.744931643857242       0.733923876669611       0.722526420371585       0.710727011816345       0.698513136449196       0.685877706401027       0.672809142730715     
  0.659293733235228       0.645324336905988       0.630887718637042       0.615967466863216       0.600552781350474       0.584623346806488       0.568167043854279       0.551168770757189       0.534219079573070       0.517235768276589       0.500186625869503       0.483071815552861       0.465891009616805       0.447994261241441       0.430698268125543       0.414001061711400     
  0.397900546841095       0.382380392445519       0.367355577731592       0.352807463619203       0.338731713812919       0.325136901683774       0.312007789765155       0.299345204302282       0.287149873723104       0.275403335117073       0.264080395118226       0.253133483495665       0.242549861286181       0.232317026840643       0.222427614068705       0.212873429232436     
  0.203642708529769       0.194724135968884       0.186113029518654       0.177793082884904       0.169754550740526       0.161980389911424       0.154463718431018       0.147198101079865       0.140177398269088       0.133395359798516       0.126845058712335       0.120520894290514       0.114417629144531       0.108529930207363       0.102853237466831       9.738315525488116E-002
  9.211547867393463E-002  8.704670564901548E-002  8.217309165680033E-002  7.749086607816713E-002  7.307784090014535E-002  6.882737275266569E-002  6.474110347336001E-002  6.081727461614603E-002  5.705599669427349E-002  5.343529767476290E-002  4.996676475262660E-002  4.664829546193437E-002  4.346221051872595E-002  4.037940542430460E-002  3.739675681842237E-002  3.449148989524156E-002
  3.166391898820896E-002  2.891906293770652E-002  2.625971228493052E-002  2.368977710980167E-002  2.121531666298356E-002  1.884390019444513E-002  1.669366542064346E-002  1.462331337747026E-002  1.265241224431236E-002  1.079974622600531E-002  9.089967685577093E-003  7.458493608414747E-003  5.868924252589147E-003  4.423472696079501E-003  3.113034759771664E-003  1.975004623727123E-003
  1.068724426056998E-003  4.615912218983155E-004  1.688592081854100E-004  1.112934083258299E-004  3.675281092538024E-004  9.792360046593604E-004  1.898996700899814E-003  3.038528542732356E-003  4.327296967999535E-003  5.711231824685948E-003  7.385117860581820E-003  9.147003598399196E-003  1.101206134566752E-002  1.289502108573178E-002  1.482515526072701E-002  1.684990651387373E-002
  1.901945907226340E-002  2.130052068928803E-002  2.370290059000082E-002  2.616754088479547E-002  2.870190088953973E-002  3.134964186526673E-002  3.415005713174751E-002  3.710068510338303E-002  4.019117946326727E-002  4.340966195078426E-002  4.674538709800752E-002  5.018659276850697E-002  5.372991373950479E-002  5.737522380135732E-002  6.111523946443180E-002  6.530826859873755E-002
  6.964654175826253E-002  7.412753228749325E-002  7.874816043272051E-002  8.344011069930279E-002  8.827223226539614E-002  9.327071182774915E-002  9.843351954290541E-002  0.103762788655924       0.109248881852059       0.114911201739493       0.120790627990446       0.126936756504046       0.133362636671047       0.140071537866715       0.147060084465292       0.154329595507846     
  0.161883258652605       0.169722193009976       0.177850444974532       0.186271592679390       0.194990183083733       0.204191006308516       0.213732936562210       0.223621829989548       0.233866865787384       0.244476440720049       0.255457828422964       0.266821528297395       0.278578452605210       0.290736290769603       0.303306042225395       0.316300225835222     
  0.329726557569794       0.343595192690887       0.357919805070915       0.372700974840490       0.387949653562600       0.403672252123891       0.419854614279765       0.436507414195390       0.453573580735286       0.471045162192965       0.488596167919260       0.506019758527888       0.523314135550725       0.540481597906929       0.557525748945938       0.574128014154641     
  0.590264461595314       0.605915046412483       0.621078359631243       0.635756156820291       0.649912153275210       0.663557446900702       0.676707046031023       0.689378611456489       0.701592220417719       0.713399090977205       0.724840901362101       0.735925516685087       0.746661065730970       0.757049579542798       0.767099338128602       0.776819050394009     
  0.786217427308449       0.795216280203928       0.803884777126005       0.812227707223799       0.820250947095915       0.827959139840394       0.835356628750036       0.842450679533417       0.849304001338610       0.855946564799525       0.862381488444417       0.868612590549240       0.874643773947745       0.880479064153492       0.886121783939801       0.891575074390851     
  0.896842412828662       0.901928178410759       0.906840132622050       0.911582841676854       0.916160825119464       0.920384542583856       0.924492152876356       0.928481773758928       0.932356295360214       0.936100752311678       0.939712134808680       0.943196812770601       0.946547020786624       0.949766380263339       0.952870259860949       0.955834539167473     
  0.958665890343126       0.961420806323492       0.964096231963506       0.966690329770357       0.969201850643303       0.971630222410098       0.973976630839899       0.976242131154343       0.978430053012895       0.980544316119277       0.982536711974584       0.984474494109826       0.986342991085892       0.988146967899981       0.989890405933027       0.991574614791695     
  0.993195158776357       0.994753323555631       0.996251637875064       0.997746008022777      -1.116640706725775E-003 -9.133869291357418E-004 -1.067171287693888E-003  0.995909864324376       0.997351251797080       0.995902180953217       0.997136692625207      -2.544507565980604E-003 -4.461571093226595E-004  0.995573385630225       0.996351503653438      -2.095879564899666E-003
  0.994519451114420      -2.430319719049196E-003  0.994027649679817       0.992369611176072      -7.169950400958461E-004  0.992799847768243       0.993781266866231      -2.471632175039998E-003 -4.019296299807153E-003  0.994879193505224       0.995038542491976       0.998775547748572      -1.484341696001368E-003  3.079883365524745E-004  0.991050674538488       0.989281501416020     
  0.987508340627568       0.991894115534022       0.998082661439907       0.993362680837362       0.991151715443904       5.517336953763383E-005 -2.137575191881589E-003 -4.115881846532755E-003  0.992781672837466       0.997330315640034        1.00042406560264       0.998060674001999        1.00110597829605      -3.405108744241052E-003  1.335087725081754E-003  0.996456432111393     
  0.996865208456619       0.999424732957496       0.989421919821579       0.990065353033397       0.988215216961456       0.986302591022379       0.990882846431261       0.992659208763824       1.142823783416000E-003 -8.366745273887546E-004  3.780648596261387E-003   1.00221017732188       0.990406240846439      -5.465047184544321E-003  2.601871175696576E-003  0.990900908551591     
  0.987535839943938       0.988926870756823       2.380702049226413E-003 -4.183522354476191E-003  0.991641772711405       0.999837852543413       0.999286027252657       4.075117373263523E-003  0.989071128467851      -2.640961508813819E-003 -3.851989143348250E-003   1.00312053994630        1.00118428011591       0.994791356742277       0.998924809152645        1.00099826894065     
  0.993684976550556       7.420733879684786E-003 -2.591675916050630E-003  0.999557417902112       0.998697760910139       5.716823162657624E-003  0.985568357035951       0.983580270526648       0.991810117060590       0.997935577325943       0.986823050734813      -5.939813167525609E-003  0.988228827186674       9.090812711741395E-003 -5.794075633001234E-004  6.094415597862474E-004
 -5.441332152802370E-003  0.984208818173229        1.00339378539863       0.987085570831075       0.984880455393986       0.997749822638172       0.995717706872134      -1.560669342706584E-003   1.00398667576112        1.00586372624987        1.00172685507306       0.984674880742089       0.982424230686303        1.00081889043414       0.994121796116643       0.986036180721333     
 -4.846762428023822E-003  5.700695908071771E-003  1.666554807303963E-003  7.467083617225511E-003 -7.205911849632965E-003 -1.798707029796795E-003 -1.740131585296411E-004  3.237587207468474E-004  2.066168752108057E-003  0.994670899360021        1.00256059614575       0.995540585156501       0.988212001828123       0.992494648570594       0.981830011065195       0.979671533268080     
  0.982658488032213       3.777808753731429E-003 -5.662027255587496E-003 -7.544294746869500E-003  0.977520679778575       0.989636219429142       5.367142702218462E-003  0.985936822430378       0.990839752357694       0.993632372949980        1.00032186841709       0.999545109749903       3.218952224342230E-003   1.00532415380568        1.00429663102025       0.996516489664079     
  0.998468642708727       6.237068861673255E-003  0.999962639608669        1.00226446316033       1.086431701289567E-002   1.00286522852485        1.00681773264837        1.00455759360366        1.00715646330297       0.990021378445047       0.993140926996320       0.988957551160687       1.524653666361121E-003  7.126535197598713E-003  0.989968114566389       0.985856824887821     
  0.983199773187984       8.871859308535736E-003 -6.162283907929548E-003 -3.975613297373609E-003 -2.616845098793302E-003 -3.896478360936697E-003  0.991301213897311       0.992416462286264       0.980537717075976       0.978341596435109       0.975959808032602       1.093248582317921E-002  0.991964613221227       0.995959529033707       0.994934049619741       0.997018380149545     
  4.966637833026765E-003  1.287437434608663E-002  0.987565856542367       0.987257504928498        1.00318440915674       0.989243753013588       9.000677612279203E-003  0.987283782851470      -4.206311649988017E-003 -8.094975309434543E-003  0.981331286265689       0.980026723765864       1.284709664512829E-002  0.981819933208877       0.977529588573939      -6.176626778929455E-003
  0.985316656779199      -7.593880730847125E-003  1.089195254829924E-002  0.994501500953699      -3.072433434636086E-003  3.587888358196297E-003  0.975241840969777       1.090265898632953E-002 -6.067019721802775E-004  8.866240563231777E-004  1.486140966884992E-002 -1.019336042530690E-003  6.876784663829738E-003  0.978644449577163      -6.394314262072109E-003 -9.109134915518895E-003
  8.893260724155114E-003   1.00552505323988        1.00841741724374       0.979429216361651       0.976974353416993       0.973856419036191       0.984516071065040       0.982371412379097       0.993661120598227      -1.652426763874862E-003  1.281390350999549E-002 -9.874358737484306E-003  0.976610454814375       0.974238300005086       1.495158827441475E-002  4.559430187793093E-003
  8.631150470429378E-003  1.093563778502373E-002  0.972879836121534       0.970487003213122      -8.324648007839759E-003 -1.046090222027640E-002  4.294911232820942E-005  1.307071738551980E-002  0.983656612804866       0.980822331471169       0.982718355253257       0.980083512757241       0.980874733265618       0.980426209832359        1.00883828478493        1.00556262938516     
 -5.975079392500427E-003  9.321673881129375E-004   1.00208620286029        1.00132049890699       0.984724343861203        1.00420633726866        1.00385424026245       0.971735816583912       1.714753584888268E-002  0.981758835319280       0.983151998428282       1.102242977220163E-002  0.998603867284101       0.989496504546467       0.969152866586413      -3.743326187057307E-003
 -5.218740460855330E-003  0.985544234874467       0.995952324874222       1.530206693445846E-002  0.979403747938737       2.618338074063977E-003  1.697455939822687E-002  1.481471243580956E-002  0.973489857844246        1.00781652078870       0.978590929108714        1.00130834566789        1.00023821717760       0.978251249759206       0.997525237040967       1.336933374423353E-002
 -4.418511035029946E-003 -8.369870915352228E-003 -2.767231276785461E-003 -1.009280062364585E-002 -9.746253272087110E-003  3.347963498958790E-003  0.975619688434750       0.975799534534605       0.973213537688697       1.142363011139497E-002   1.00946654025634       0.970791252333754       0.968321222124965       6.681710499779305E-003  0.971682985969554       0.965830132877628     
  0.963589027812418       8.711686626229771E-003 -7.967442946952478E-003 -1.089033852039301E-002 -1.978008854403077E-003  1.923352328910228E-002  1.704982981818916E-002  0.996402266483914        1.00303504819747      -1.192076240336934E-002  0.982912828879528       0.979733123463288      -8.636889793098238E-004 -7.277008356463231E-003  1.468315148460520E-002   1.00194810480373     
 -1.063597085367532E-002 -1.296660019771763E-002  0.977589553174782       0.977103480432849       8.933095956021061E-003  9.527063374834501E-003  0.987531196399037        1.01093811758538       0.990435221691734       1.562725719384958E-002  1.988226392383573E-003  0.969472108466985       0.966976124283696       0.964337623186979       0.961273505887194       1.760522327520288E-002
  1.524971398211588E-004  0.970500065488495       1.373943880313074E-002  1.946063049403012E-002 -1.228368378729218E-002  0.993339146935252       0.994739153614878       0.997482680878782       6.606315322720225E-003 -6.571664024728976E-003   1.00615328085123        1.00611676144025       0.967650647686951      -5.761734411160066E-003 -4.951294174080206E-003  4.173133920673904E-003
  0.970857155431401       1.257794951628058E-002  0.999162562909455        1.00085199692279       2.159665624358521E-002  1.944321168119019E-002  1.711876036622849E-002 -3.972640103446567E-003  2.188217235229373E-002  0.974950753573428       0.972122590666706      -1.471118838079820E-002  0.987900980783032      -1.058645503602382E-002   1.01057159859529       1.568644027112347E-002
  9.119016471432418E-003  2.003201927174966E-002   1.00475355475154       0.968277669429040       0.965695302912427       0.996111381851923       0.962725186795095       2.397503085222613E-002  6.021915016474306E-003  2.191149345793566E-002   1.00874596298420       6.470199483825440E-003  3.801983522202628E-003  3.466967499863161E-003  1.800811281891606E-002  3.157166391755328E-003
 -8.875145301937819E-003  0.990403743441924       0.985408994204429       0.983386608849227       0.985805445936067       0.987843674154274       0.995097338690822       1.456063792924988E-002 -1.861659182475428E-003  0.966248457252165       2.063912973981727E-002  0.969553027936348       0.990963214069617       0.989980875863234       0.987628331065715       0.985418343915753     
  0.988310389002660       0.989246109749765      -1.232553734245590E-002 -3.173716218770627E-003   1.00030824722694       0.984516374418639       0.968351412887610       0.998035894507864       0.996815679027806       2.631182570521551E-002   1.00821037622074        1.00643849089118        1.00997705013819        1.01167328334136      -1.304575093788498E-002 -1.564139376171439E-002
 -8.469280016613524E-003  1.972784833954666E-002  1.722287185469839E-002  1.447829843633987E-002 -1.008405808821100E-002  0.990720451783825        1.00909379642032       6.039094818022493E-003  0.980519178424150      -7.227253582875369E-003  0.992408483600374       0.993111412916813       0.994260630839326       1.333705519419422E-003  0.972407410330275       1.247472466502730E-002
  1.204100652408159E-002  0.980975148292078       0.970787961006014       0.959408719480779       0.963103945201673       0.960213085133304        1.00423657737304       0.964751704338809       0.967892033557855       0.973770439024314       0.972091536984176       0.975755545434766       0.976667627917909       0.975053156019822       0.973420288594513       0.957222716550215     
  0.953935038492203      -5.359632877581158E-003 -1.283390392947486E-002   1.01217928654670        1.01338477815948       0.982524139386734       0.979957639486564       6.413990935212511E-003  5.500469366454522E-004  6.888604809881825E-004  3.539691458721468E-004 -6.197746664083805E-003   1.01147005335543        1.00716901404981      -1.046209133923309E-002  2.886107591429435E-002
  2.602326496810660E-002 -1.506613695735631E-002  9.161722304912162E-003 -1.551446882204204E-002 -1.844081387515887E-002  0.992125788767609       0.990223117224864      -1.259590849445575E-002 -1.534825996469363E-002  2.674270288816116E-002   1.01107166570553       1.178851844730346E-002  0.986613030365658       0.987200227503874        1.00313184710609        1.00913521758237     
   1.01200209273018       0.987820654969964       0.961914823223078       0.958961029669747       0.955722937336588       0.952182600416369      -3.036077601515742E-003  0.977929687879275       0.985047958274622       0.984464146827279       0.982753135185283        1.00929206535967       0.977633744079557      -1.233770702612721E-002  0.984219684120323       0.967214936694156     
  0.969128107198626       0.970476586589071       0.971647103116682        1.01118200185885        1.01175716535426      -8.861620770071185E-003 -1.801122498804955E-002  0.963512366119182       0.973936315424200       0.971006742392524       6.207231762346021E-003   1.00727852744633      -4.274811216166819E-003 -7.935093206930238E-003   1.01198224512847        1.00429021165837     
   1.00215895838107        1.01296324896236       2.255635583794878E-002  2.941010269823785E-002  2.669686440170692E-002 -9.314745712568778E-003  2.252571744086458E-002  2.432064263471106E-002  2.343490840033993E-002  0.978195160437180       0.976843071982090       3.218582096652169E-003  2.842517428113422E-003  0.999170692153487       9.568899409083563E-003   1.01405589564695     
  0.960971261215582       0.987729431839352       0.993509670998858       0.995357920784014       0.957832526021102      -1.215013268761151E-002 -1.517549863973291E-002  0.964721661281047       0.980353111217252      -1.528754618068597E-002  0.981351738512463       0.984570217798107       0.990950900432675        1.00659211390227       0.973024108286599       0.969191501067486     
  0.966116817024949       0.963820651915140       0.967805218288328        1.01342297596013      -7.437306527479458E-003 -1.098013934746522E-002  1.156540194708136E-002  2.415390127543977E-002  2.011430831537727E-002  1.733964141105492E-002  3.160511131018211E-002  2.916515068495578E-002  2.771613611764675E-002   1.00511859247369       1.438324914612558E-002 -1.697450698194500E-003
 -1.688306299746459E-003   1.01425811711647        1.01656719720785      -1.542597287562437E-002  0.954718490023204       0.951596146492114       3.232656593513038E-002  3.004722434071927E-002  2.779498113825515E-002 -1.252350254262638E-002   1.01393897666960        1.01762966798042       0.975465001251792       0.970006719872343      -5.362847119160040E-003  8.888093782859839E-003
  6.762048427799353E-003 -1.843591761752107E-002   1.01417315294587        1.01526716930196       2.476028533967408E-002  2.135204554496270E-002  0.966028677930073       0.967548183338953       0.969043956950731       0.969228271673777       0.997879839157051        1.00563184197954        1.00836168132497        1.00415815487523      -1.069348749619731E-002 -1.317089724603468E-002
 -1.534433102727029E-002  0.948405126429765      -1.074368608881647E-002 -1.415928217410556E-002  0.975365660405514       0.956208002320762        1.00915094472038        1.01198830595548       0.981258908196573      -1.407476137497276E-002  0.991368546109396      -1.776334258414724E-002 -2.106305146190850E-002  3.523440089964729E-002  3.305593976655044E-002  3.091978420271087E-002
  2.894665487668658E-002  0.972412790850662       0.975217830763164        1.00107822452215       0.999827543761343       2.343197669566987E-002   1.00727859570215       1.080698059548738E-004  5.991664559075898E-003  3.150465405130300E-003  0.966710862697000       0.969097059189760       0.978378026044027       2.451873118270809E-002  1.839302054418866E-002  1.573702983326116E-002
  0.999881216894568        1.00241987048839       0.998962982835094        1.00604176282562        1.01474081321699        1.01494264430972       1.280067099249224E-002   1.00367697090886       3.449297195841076E-002  3.161176753500736E-002  0.953150171451261       0.949886125029959        1.00550633677710       0.946309551056431       3.815838950395248E-002  3.592384738586891E-002
  3.380736808043964E-002   1.00910229583598       0.960963885065127       0.957470760757759       1.887895759715544E-002  0.962595491485450       0.985082809182978       0.977108251916754      -1.678370150359595E-002  0.965605949490643       2.045493949102301E-002  1.742413115463356E-002  0.964304456652377       0.966298558460566      -5.149235013702364E-005 -7.154384220506126E-003
 -1.416378435435617E-002  9.802508265081522E-003  0.963897829909758       0.961687368585429       0.968030844420326      -1.765232538421767E-002  8.580150344020642E-003  0.954669368390748       1.425003933367341E-002  2.216087866975261E-002  2.556907786519518E-002 -1.246593381785206E-002 -1.541270976364438E-002 -1.385884397905135E-002 -1.718175812663296E-002 -1.771031672154183E-002
  0.954683590888083       0.958866295153338      -2.173210898622670E-002  4.118427563417520E-002  3.877826048205975E-002  3.643448934670074E-002  3.464549024081438E-002  6.756625702521421E-003   1.01249709216857        1.01707532301258        1.01902372686385        1.00985436856093        1.01675574040066       0.971792825947221       0.975195974008110       0.960665324436501     
 -2.361491566287544E-003  3.762110861065534E-002  3.485738923602211E-002  3.183369746193293E-002  0.951810652046305       0.948031398103564       2.382407033581673E-002  0.996802877235140       4.228797204479474E-003  3.898655942714286E-003 -1.803333892649460E-002 -1.583101961909577E-002 -1.770256879189047E-002  0.962650288541833       0.958746252105860       0.978213039185354     
  5.874868880782032E-003  3.746776177674678E-003  1.308862281114995E-002  1.125452398529320E-002  0.943470496087561       0.948603986220589      -1.849185772225683E-002 -1.843483396890264E-002 -1.770975070023877E-002 -2.150192059630543E-002  0.964967114952790       4.436675530470286E-002  4.191182605119340E-002  3.897732818419542E-002  1.950524148265464E-002  0.954294222631970     
  0.957721289965663       0.959894848147227       0.950748807767794       0.956454121910646       0.952888999734195       0.949269134060324       7.894061026078031E-003 -1.235666962936240E-002  0.997828911204140       0.974451461222052       0.973237120412209      -2.037136979980820E-002 -2.034402438031222E-002  0.970789714070547       1.609163967102733E-002  1.313506414663146E-003
  0.981500602635146       0.984547511796484       1.656711443504998E-002  2.069386480258251E-002  1.749478850795237E-002  1.412552899670270E-002  4.085364674896302E-002  3.821201853260574E-002  0.978826381295036       0.973607897341908       9.939913450723965E-003  6.629123851278749E-003  0.945148558279342       0.941643696273770       8.328996745646399E-004  1.084512805165334E-002
   1.01432433046381       0.960859839889929       0.956727377973229      -1.932063583534643E-002 -2.156072757499472E-002  0.938039234382244       0.934383294671037       2.308804257431660E-002  0.947205520750518       3.535738248728001E-002  3.217954778563425E-002  2.686782768445012E-002  4.767287101782416E-002  4.528079061860315E-002  4.283065584373284E-002  4.076155435584716E-002
 -5.261175157164060E-004  0.987760874654987       0.990990779061898       0.955125620032059       3.626017881893506E-003 -2.071320449355608E-003   1.01430177277703       2.414344662946389E-002  4.413198788592703E-002  4.153164826115550E-002  3.901621799334932E-002  2.024291463916755E-002  7.051442339899827E-003  1.340870494579197E-002  0.943687272484857       0.940091860793696     
  0.942499406690736       0.987720433091764       0.994190725410479       0.994255578524925       0.945553432823678      -2.336713607606495E-003  0.958738358567171       0.951374906176353       0.947596809040363       0.988762299254751       0.992450724887271       0.938399035250752        1.01085963761812       0.990994542412002       0.934594222876121       0.956752797857601     
  0.954737264045294       0.952586181401578       0.971783390638028       0.945745561468620       0.957574883953427       1.005410647088783E-002  6.446968834189666E-003   1.01661479567287        1.01520035079893        1.01663346264513        1.01886404026507       7.110085501193945E-004 -1.527674760832339E-003  1.048559596758235E-002  4.748821463920082E-002  4.473428732212268E-002
  4.219114780818192E-002  4.070985451367767E-002  0.950392280596989       0.946271247249492       0.930582155831491       2.095431369212810E-002  1.761504608621199E-002  2.663042019896160E-002  0.989702681020721       0.978437136364603       0.982315488476577       0.986051243299655       0.975149560543088       0.975137027067570       5.108387966101941E-002  4.865468120943171E-002
  4.619436179630462E-002  4.382377059444751E-002  4.074801154760872E-002  0.953641929043011       0.956048607747385       1.410383200963976E-002  1.711012394478878E-002  0.961616916875703       0.993375963734677       0.964140518822443       0.960113523675281       0.966695284651560       0.940016008632137       0.998247679600467        1.00124579599005       0.994390249703298     
  0.942294426182240       0.938596512735338        1.00208772624075       0.948756394476965       1.376225904210388E-002   1.01777927790207       2.824250863173799E-002  3.040628948737027E-003  0.936332085726435       0.952706782350567        1.00051054559338        1.00326552220596        1.00639070672433       0.967542289194983       0.944871494895995       0.949657938198335     
  0.945092284801650       6.475839454996078E-003  5.099809498731264E-002  4.809785183089067E-002  4.491082185386469E-002 -9.290805042855142E-003 -1.237875126064319E-002 -1.578762422079313E-002 -5.583467391030892E-003 -7.948821846309668E-003 -3.650411167352407E-003  0.987580139847255       0.979585160254141       0.999584849986308       0.944400871144976       0.936603597692366     
  0.932579045769061       2.467100171546103E-002  2.858383971816486E-002  2.418234075351857E-002  0.997084617157356       0.998426239289643       0.990957512864142        1.01814731266686        1.02022108796066       0.990516659757639       0.996042255005523       0.997163447762806       0.994293274639350       0.984358900866711       0.963182736653555       1.019600395689154E-002
  6.359463323464423E-003  0.934542534488848       0.950791230362705       0.948452036074669       3.180970534688787E-002  3.071479110457974E-002  2.873370460863662E-002  0.942028088157696       0.947382989037934       0.943961497923855       5.462273165955286E-002  5.211771689655021E-002  4.952607188267252E-002  0.983388069848640       0.986942859682836       0.987440300610962     