 VARIABLES = "X" "Y"
 ZONE T="  0.000000000000000E+000 " N=        9944  E=       19548
 ZONETYPE=FETRIANGLE DATAPACKING=BLOCK
  -19.9782054645671       -16.7460447536127       -13.5432470514743       -10.4462771124608       -7.39483127129757       -4.39431260318683       -1.43672854734527        1.47853524247441        4.40194279230921        7.38347804238703        10.4122197804982        13.5308676756442        16.7310607632789        20.0189460056259        20.0156650185539        20.0123451374732     
   20.0090067226427        20.0056742799471        20.0022854763303        19.9988742323503        19.9954939648514        19.9920871178897        19.9886881104951        19.9853470049941        19.9820070605281        19.9783478910574        16.7317203104092        13.4557822172063        10.1645634122701        6.87452312340184        3.53259687976399       0.170578499054329     
  -3.16443525887912       -6.48474521199279       -9.79114624567630       -13.0836966857758       -16.3754018560739       -20.0188035791356       -20.0155069002833       -20.0121812769038       -20.0088400757232       -20.0054989473046       -20.0021446450312       -19.9987763328347       -19.9953939522161       -19.9920253568386       -19.9886729196427       -19.9853365630757     
  -19.9819979716434       0.999616668724571       0.998098786003771       0.996585183968288       0.995081696575520       0.993533470058757       0.991924140713118       0.990248843116761       0.988512048016499       0.986713626970075       0.984851236971205       0.982910843536893       0.980900987047733       0.978805440417498       0.976636891535606       0.974391467922565     
  0.972061738847840       0.969645139822124       0.967140840277468       0.964546511134730       0.961862509634619       0.959083841852609       0.956202678448511       0.953207874979708       0.950089989473931       0.946877812332658       0.943549619571219       0.940072757603738       0.936489712279091       0.932788332445374       0.928947090100543       0.924930964957843     
  0.920770668374265       0.916460918862308       0.911987774325690       0.907342212331325       0.902517739177763       0.897507780952642       0.892299687118289       0.886880620781018       0.881242850847201       0.875378538645213       0.869288774268526       0.862966252295755       0.856402945142838       0.849588752309328       0.842514729161378       0.835172311289614     
  0.827555052341965       0.819654456696375       0.811462198601900       0.802969844799936       0.794168512318463       0.785050527206651       0.775606973926938       0.765713318449125       0.755458834952506       0.744832147100556       0.733822653381326       0.722423446457790       0.710622265542786       0.698406598865217       0.685769362626152       0.672698981840465     
  0.659181748621076       0.645210527887751       0.630772090461937       0.615850031310711       0.600433558561610       0.584502365506995       0.568044343855681       0.551044404395495       0.534093166848768       0.517108427108460       0.500057978684625       0.482941993074102       0.465760151620172       0.447862487192876       0.430565775858112       0.413868041362666     
  0.397767180306428       0.382246852732607       0.367222029323694       0.352674064489660       0.338598615324741       0.325004247759522       0.311875717148996       0.299213841743655       0.287019341420730       0.275273745823217       0.263951855213403       0.253006096280988       0.242423724649817       0.232192233506197       0.222304251115879       0.212751578279188     
  0.203522446479883       0.194605535254725       0.185996157051440       0.177678002608148       0.169641322741727       0.161869072582423       0.154354366525570       0.147090765772366       0.140072127236686       0.133292197421127       0.126744046485583       0.120422070601511       0.114321029301617       0.108435586626540       0.102761179518650       9.729340930666998E-002
  9.202806810861582E-002  8.696165062434649E-002  8.209040925975082E-002  7.741057039210131E-002  7.299989855404967E-002  6.875180006051372E-002  6.466791208234195E-002  6.074647320421434E-002  5.698758966241463E-002  5.336929984051635E-002  4.990317983365336E-002  4.658712453745890E-002  4.340346407438853E-002  4.032311483995257E-002  3.734295649095553E-002  3.444023561994169E-002
  3.161527071874835E-002  2.887308102409047E-002  2.621645993382230E-002  2.364931985751646E-002  2.117772045203242E-002  1.880922960812590E-002  1.666183208810772E-002  1.459441100044489E-002  1.262652091888296E-002  1.077692903949639E-002  9.070252968460982E-003  7.442048392128377E-003  5.856058146698217E-003  4.414344773241418E-003  3.107913217265021E-003  1.974186746269540E-003
  1.072461044285634E-003  4.698954060467941E-004  1.812710470297965E-004  1.277770918095278E-004  3.891497879157759E-004  1.005836126856595E-003  1.930285826643093E-003  3.074079643302433E-003  4.366695349556661E-003  5.754100727342212E-003  7.431599667721466E-003  9.196813335708015E-003  1.106501141610009E-002  1.295083922230650E-002  1.488366511380352E-002  1.691102124609209E-002
  1.908315974548070E-002  2.136674862956797E-002  2.377161055504323E-002  2.623863324857374E-002  2.877529320653981E-002  3.142529524703989E-002  3.422796323213067E-002  3.718082827902049E-002  4.027353231828376E-002  4.349418641331685E-002  4.683203708588717E-002  5.027531508591044E-002  5.382065411135394E-002  5.746792874555259E-002  6.120985252914805E-002  6.540490241238986E-002
  6.974514547606496E-002  7.422805231898465E-002  7.885054050335498E-002  8.354426818469474E-002  8.837811157349028E-002  9.337826435354525E-002  9.854269297897768E-002  0.103873528470090       0.109361128116752       0.115024897118277       0.120905721340731       0.127053201994583       0.133480383507349       0.140190528001114       0.147180251652942       0.154450866534904     
  0.162005553801924       0.169845425930901       0.177974523192859       0.186396417603153       0.195115650142654       0.204317014271253       0.213859365056709       0.223748551467384       0.233993745581097       0.244603336905912       0.255584591765193       0.266948002148044       0.278704472739395       0.290861685431237       0.303430631943021       0.316423823202817     
  0.329848967560929       0.343716212516047       0.358039223785664       0.372818574914641       0.388065209917306       0.403785532845914       0.419965384151379       0.436615431519285       0.453678609542360       0.471146965501027       0.488694571323541       0.506114636906017       0.523405375148271       0.540569094483720       0.557609406500312       0.574207819813053     
  0.590340421614237       0.605987184426181       0.621146711153427       0.635820767348825       0.649973087255574       0.663614774893282       0.676760842670363       0.689428953803050       0.701639186439723       0.713442749994991       0.724881315657767       0.735962750392875       0.746695184408463       0.757080651649692       0.767127432951013       0.776844237650945     
  0.786239776906451       0.795235888600533       0.803901722554376       0.812242068884089       0.820262804667581       0.827968573724782       0.835363720039534       0.842455508960474       0.849306631291225       0.855947049358211       0.862379881858162       0.868608946951628       0.874638147271754       0.880471508035298       0.886112351898874       0.891563819843601     
  0.896829388930790       0.901913437706805       0.906823725845823       0.911564818773813       0.916141235216150       0.920363500793084       0.924469693407788       0.928457931914123       0.932331105871532       0.936074255564148       0.939684372710017       0.943167825450682       0.946516851550319       0.949735071577540       0.952837849147966       0.955801072810878     
  0.958631412762350       0.961385342064277       0.964059806881874       0.966652970601032       0.969163584789162       0.971591077696318       0.973936634872077       0.976201311356476       0.978388435788536       0.980501926619791       0.982493593182939       0.984430664585168       0.986298474898003       0.988101787504173       0.989844582442476       0.991528168951545     
  0.993148113085554       0.994705700151339       0.996203458063817       0.997697272403159      -1.102311048686425E-003 -9.029610839416971E-004 -1.048708210959723E-003  0.995859395568916       0.997301019263807       0.995851497721863       0.997088575901350      -2.528474942017516E-003 -4.398510957016880E-004  0.995525747283549       0.996303912491559      -2.087249887237953E-003
  0.994468663804956      -2.417859824361138E-003  0.993980479878982       0.992323029769318      -6.936492461669943E-004  0.992748647587798       0.993730107953383      -2.451656558775105E-003 -4.004964437310243E-003  0.994831941728246       0.994991601220546       0.998727019277619      -1.479814030259279E-003  3.099611005536171E-004  0.990999085408452       0.989229528069576     
  0.987455978231076       0.991842579798664       0.998034643488737       0.993315925939793       0.991105744258876       8.367128386624307E-005 -2.111880328770183E-003 -4.098568017976731E-003  0.992730163066368       0.997282841912401        1.00037530864888       0.998010319624384        1.00105673099317      -3.398201920178480E-003  1.332723416828265E-003  0.996409660670845     
  0.996814405699564       0.999374902042420       0.989376367719952       0.990013467252139       0.988162977603938       0.986249982162642       0.990836756341269       0.992613110443139       1.175587434575923E-003 -8.064216800508591E-004  3.821102002179297E-003   1.00216142036269       0.990360908931454      -5.449378396706690E-003  2.595301878554542E-003  0.990849072035011     
  0.987491004434771       0.988881747062661       2.417417218536673E-003 -4.162257833516164E-003  0.991589953760445       0.999787696288998       0.999238143791754       4.064499367562879E-003  0.989018998074117      -2.638158274886822E-003 -3.841148585667406E-003   1.00307144054217        1.00113602563460       0.994740197246480       0.998874324118847        1.00094805390046     
  0.993633482038187       7.402721197445521E-003 -2.562985781847458E-003  0.999509121278299       0.998650481394521       5.702300644996740E-003  0.985524228882716       0.983536857035952       0.991764679659593       0.997888975681233       0.986778620514957      -5.921461017793903E-003  0.988184145003323       9.070020026008747E-003 -5.791124484854485E-004  6.055056204173530E-004
 -5.432169233624409E-003  0.984155753173120        1.00334541230145       0.987033065352466       0.984827467985113       0.997698901723837       0.995666514763164      -1.562015802775784E-003   1.00393793098141        1.00581524782666        1.00167712293857       0.984631155863961       0.982381241158549        1.00077120452384       0.994075681303085       0.985992142816502     
 -4.841626581950913E-003  5.684278407449422E-003  1.704468655584871E-003  7.447819649706833E-003 -7.198563498436714E-003 -1.767223847944387E-003 -1.795086017160050E-004  3.578137402598309E-004  2.058048122602068E-003  0.994619412874394        1.00251262805390       0.995494526475107       0.988159639755868       0.992442836079085       0.981776332039248       0.979617393310379     
  0.982604940650166       3.765513821902362E-003 -5.649021552722104E-003 -7.528768773348289E-003  0.977466056684754       0.989591386168164       5.411190167151502E-003  0.985884155476809       0.990794860034243       0.993580543976667        1.00027481219169       0.999498702128758       3.260601808126090E-003   1.00527517364583        1.00424716284817       0.996465246668930     
  0.998417549669123       6.218128913050245E-003  0.999912047392727        1.00221417238216       1.084043604176463E-002   1.00281776120540        1.00676843888191        1.00450963580727        1.00710854285556       0.989969193276310       0.993095462588658       0.988913043182934       1.514953526021203E-003  7.174102976781427E-003  0.989916062644748       0.985803951261805     
  0.983146267862970       8.850055491907954E-003 -6.139963681569213E-003 -3.946567830139205E-003 -2.619803249651364E-003 -3.895406107701823E-003  0.991249025825304       0.992364263549739       0.980483767344028       0.978287211342354       0.975904905526836       1.098637540277974E-002  0.991919725810645       0.995908036799534       0.994882197051844       0.996972445170658     
  5.011917371795382E-003  1.293088924753127E-002  0.987521532521837       0.987213479036836        1.00313445151160       0.989191258362450       9.051556350000337E-003  0.987231037998873      -4.180488211261512E-003 -8.075423993580333E-003  0.981277454179775       0.979984593495711       1.282002679783933E-002  0.981777076652685       0.977488390712642      -6.150586122365125E-003
  0.985273032513444      -7.582519961570890E-003  1.086670061091131E-002  0.994456085472897      -3.039699974822411E-003  3.573816906695205E-003  0.975201425021228       1.095749240300650E-002 -5.713792877376575E-004  9.257858985691444E-004  1.492040610354111E-002 -1.026355599542821E-003  6.925562633924159E-003  0.978602995099333      -6.391053008274945E-003 -9.103870728859287E-003
  8.945309244989581E-003   1.00547526997675        1.00836782611513       0.979375073312222       0.976919712936242       0.973800918564787       0.984462770326030       0.982317700807911       0.993608891705804      -1.615824233324185E-003  1.287093566864380E-002 -9.860724024406740E-003  0.976569620642852       0.974198282947501       1.492152063087285E-002  4.605979325424305E-003
  8.607848880769688E-003  1.099121882565392E-002  0.972840264859439       0.970448290801582      -8.301469774611938E-003 -1.044035469814582E-002  8.334925071728393E-005  1.304230392818298E-002  0.983613346447373       0.980780162568412       0.982675700578870       0.980041811378872       0.980820804977853       0.980372119848187        1.00878993550907        1.00551514828498     
 -5.945406103147330E-003  9.208490402291358E-004   1.00203937702884        1.00127430761837       0.984681323858144        1.00415624640889        1.00380388064206       0.971696660192845       1.711464114647973E-002  0.981716757799616       0.983109643269566       1.099563148667328E-002  0.998558098124308       0.989452104422975       0.969114546946046      -3.747871347580613E-003
 -5.219407352931236E-003  0.985491073957739       0.995907026260740       1.527086134689544E-002  0.979362360001862       2.661242445356388E-003  1.703612636381461E-002  1.487420361027843E-002  0.973434328687148        1.00776768419762       0.978536581306044        1.00125766513625        1.00018707822092       0.978210011188189       0.997473726059867       1.333959340547263E-002
 -4.384503921969081E-003 -8.343343453278747E-003 -2.729443552141488E-003 -1.007580359483438E-002 -9.736570171351802E-003  3.331860031950052E-003  0.975564669902872       0.975759077295520       0.973173941219263       1.139523898936958E-002   1.00941741249247       0.970735068096322       0.968264514524803       6.731755944075600E-003  0.971626965824646       0.965772881776451     
  0.963531338110862       8.686747086978882E-003 -7.966108305516612E-003 -1.088728709943100E-002 -1.986549555546568E-003  1.929767420184184E-002  1.711192402697858E-002  0.996350389622944        1.00298425522961      -1.190554425159469E-002  0.982859164833027       0.979678727644269      -8.220914237972337E-004 -7.245519543253151E-003  1.474320996970099E-002   1.00189689649995     
 -1.061195514898420E-002 -1.294503970863875E-002  0.977548618000966       0.977062973417758       8.986430238307988E-003  9.582032629627158E-003  0.987487545912075        1.01088878979758       0.990391032348124       1.559514911765177E-002  2.032393636413686E-003  0.969415670619842       0.966919192559926       0.964280168985076       0.961215343877283       1.757133660585248E-002
  1.391711031728208E-004  0.970461349441993       1.370869749602694E-002  1.942491500424735E-002 -1.227148657993783E-002  0.993294346135627       0.994694458960242       0.997437526666740       6.657607152816191E-003 -6.574037195861457E-003   1.00610322398626        1.00606629845954       0.967612890939049      -5.726538982333744E-003 -4.957442083056790E-003  4.220962439501036E-003
  0.970800958173380       1.254764653678403E-002  0.999111026599803        1.00080041452139       2.166330318327256E-002  1.950787498096802E-002  1.718139063088451E-002 -3.933774853316536E-003  2.184362995635887E-002  0.974910723133196       0.972083447319568      -1.469616177773314E-002  0.987857689242015      -1.055941043825331E-002   1.01052289856223       1.565358351402763E-002
  9.092511240656801E-003  1.999530610980280E-002   1.00470266931923       0.968221006048213       0.965638204553595       0.996066842983601       0.962667420959405       2.404390284117800E-002  6.001036628648041E-003  2.197859406669328E-002   1.00869593593797       6.522715516889788E-003  3.851133953951871E-003  3.517474448100861E-003  1.797329189357603E-002  3.139049312925107E-003
 -8.842211191832419E-003  0.990359998919930       0.985366157267327       0.983344387009621       0.985762736751791       0.987800721822662       0.995045080199272       1.462122851479307E-002 -1.818826218117455E-003  0.966211133474827       2.060144242026367E-002  0.969496578439825       0.990910630148384       0.989928345943230       0.987575489066652       0.985364991789625     
  0.988257454416137       0.989193088736837      -1.231820478530958E-002 -3.183802619321692E-003   1.00026266511936       0.984474326736592       0.968313360455323       0.997983998829557       0.996763396613843       2.638269626716217E-002   1.00816289880095        1.00639140881729        1.00992915509006        1.01162501202529      -1.302087829673036E-002 -1.561869356331273E-002
 -8.440473355658539E-003  1.979299855529384E-002  1.728597705525898E-002  1.453935519815470E-002 -1.005443609431263E-002  0.990677149025262        1.00904342078017       6.016278646116126E-003  0.980477642753157      -7.190953914867054E-003  0.992364154356478       0.993067301083081       0.994216919992566       1.379183622908276E-003  0.972351520839388       1.253218759546290E-002
  1.209902073506903E-002  0.980933949624172       0.970731748986563       0.959350084616988       0.963067871401475       0.960178006672938        1.00418947327924       0.964715051817829       0.967835331215210       0.973714842026760       0.972035525422243       0.975700548661693       0.976612680166898       0.974997746186739       0.973364397052738       0.957188683013510     
  0.953902162897109      -5.319808567342927E-003 -1.280626380551244E-002   1.01213026713765        1.01333545582589       0.982470256075648       0.979903158826197       6.389320879254515E-003  5.342934359149722E-004  7.358661954088277E-004  4.025359791638012E-004 -6.205468273349751E-003   1.01142002287586        1.00711835247188      -1.042788230594686E-002  2.893445066210692E-002
  2.609391888422361E-002 -1.505600529560452E-002  9.217484640318952E-003 -1.548859721280948E-002 -1.841667404596647E-002  0.992073147034299       0.990170013118688      -1.257794816925894E-002 -1.532924178026765E-002  2.669935941471125E-002   1.01102420223402       1.184702606550152E-002  0.986559641656801       0.987146775834087        1.00308588387615        1.00908815573082     
   1.01195504977126       0.987767047689009       0.961879111721702       0.958926332647119       0.955689343221060       0.952150224889586      -2.991580513787296E-003  0.977889302580030       0.984994301315922       0.984410496475670       0.982699186548750        1.00924144012785       0.977578845629785      -1.230677846096500E-002  0.984165727409611       0.967158126289551     
  0.969071578097147       0.970420203889044       0.971590839223503        1.01113235651809        1.01170684819498      -8.824354630745440E-003 -1.799857802210060E-002  0.963476162268519       0.973896768160395       0.970968064812039       6.260894417134114E-003   1.00723186941068      -4.286145194685941E-003 -7.939104596414394E-003   1.01193164720796        1.00424360892571     
   1.00211357643071        1.01291536798631       2.262395060030634E-002  2.936378464461559E-002  2.665345076906014E-002 -9.320302320406211E-003  2.248627007088941E-002  2.427955203706741E-002  2.339456013335108E-002  0.978154970338653       0.976787824537210       3.270369238491979E-003  2.821950271131179E-003  0.999125716474488       9.541018262460838E-003   1.01400617670742     
  0.960935896055657       0.987687033796511       0.993456966381287       0.995305114905568       0.957773461933395      -1.211492775628563E-002 -1.516851513372582E-002  0.964664382822694       0.980298524788642      -1.525932720537748E-002  0.981310928182878       0.984528863453024       0.990908193732893        1.00654118950297       0.972984963105169       0.969153299532593     
  0.966079722334550       0.963784480090817       0.967767581916520        1.01337439802668      -7.446538862424307E-003 -1.098222698194281E-002  1.162438686100167E-002  2.422281630021561E-002  2.017991020964824E-002  1.740323395937576E-002  3.168068574494647E-002  2.923885689229302E-002  2.778847150371819E-002   1.00507284017715       1.444482865528305E-002 -1.710613653625853E-003
 -1.703762032343212E-003   1.01420989775757        1.01651875694658      -1.539530213337944E-002  0.954658747860747       0.951535739259571       3.227740756041577E-002  3.000010908454826E-002  2.774989179281936E-002 -1.252714821535904E-002   1.01388892503436        1.01757985733096       0.975425197073941       0.969968559233637      -5.375196239307288E-003  8.944529106202316E-003
  6.736072253618730E-003 -1.841588725754100E-002   1.01412573030839        1.01522014820146       2.471886751585788E-002  2.131335769256165E-002  0.965971610088464       0.967491337078605       0.968987293881412       0.969171510842897       0.997835527768713        1.00558560798232        1.00831548390143        1.00411299238407      -1.065526419405589E-002 -1.313797855336067E-002
 -1.531107624586558E-002  0.948344005594582      -1.075059912805659E-002 -1.416446887292505E-002  0.975326059145154       0.956148616311240        1.00910004332250        1.01193746633222       0.981204149743834      -1.407514610053281E-002  0.991315291077054      -1.775503686145565E-002 -2.105266564302025E-002  3.518275482560428E-002  3.300623072850668E-002  3.087182212902169E-002
  2.890023480263480E-002  0.972374104415613       0.975178555256635        1.00103344443111       0.999783437784883       2.350024524843819E-002   1.00723314905479       1.579079569362646E-004  6.046310901710008E-003  3.203529125584086E-003  0.966673871832447       0.969059483012231       0.978338117931055       2.447708239938788E-002  1.835722246371552E-002  1.570325140112272E-002
  0.999829302869359        1.00236823265161       0.998910650472797        1.00599677405971        1.01469053598911        1.01489205211499       1.276922520746996E-002   1.00362567775462       3.457082450425495E-002  3.168728456217240E-002  0.953090188601574       0.949825451476249        1.00545490505574       0.946248115882706       3.810440581094212E-002  3.587191243153558E-002
  3.375721108529205E-002   1.00905719461717       0.960905661613676       0.957411695569887       1.884213741356154E-002  0.962537672796830       0.985028572486048       0.977052762156555      -1.677856524453046E-002  0.965569494683233       2.052114307990567E-002  1.748834729369637E-002  0.964246974170555       0.966241394486963      -4.793741572205667E-007 -7.113805402210355E-003
 -1.412728590659076E-002  9.773335937884797E-003  0.963861794844141       0.961652055547828       0.967993914323209      -1.763568838519758E-002  8.637106076704773E-003  0.954609720553222       1.431229841014862E-002  2.212099931469565E-002  2.552589955737414E-002 -1.246471262793081E-002 -1.541015837783487E-002 -1.385442633021097E-002 -1.718064398264493E-002 -1.768189305983641E-002
  0.954623990119403       0.958807637274389      -2.171063748104101E-002  4.112785497347239E-002  3.872418635339248E-002  3.638234060899784E-002  3.459478295324808E-002  6.729435352904236E-003   1.01245059225471        1.01702798545843        1.01897670081736        1.00980763474893        1.01670925215886       0.971754701192989       0.975157109521973       0.960607045995300     
 -2.314368005819285E-003  3.770127671124356E-002  3.493529075198895E-002  3.190912142711445E-002  0.951750459797390       0.947970426971842       2.389319103336504E-002  0.996759170754352       4.205134850767206E-003  3.874249988580567E-003 -1.803002137297643E-002 -1.583300779776240E-002 -1.770614051157951E-002  0.962592343970704       0.958687473916496       0.978158509994280     
  5.930276785158276E-003  3.801500745868273E-003  1.305607307994872E-002  1.131406044529113E-002  0.943408454394126       0.948572996627381      -1.846140279694606E-002 -1.840066737692848E-002 -1.768292501445489E-002 -2.147582693590982E-002  0.964909469644284       4.430782279085987E-002  4.185507122523203E-002  3.892303156601151E-002  1.946731997796609E-002  0.954261107576249     
  0.957687017653259       0.959859931826607       0.950716959957622       0.956420315678775       0.952856409264500       0.949237803497173       7.951502978106404E-003 -1.236438158573323E-002  0.997785700278705       0.974395611205703       0.973181020361582      -2.036879045770859E-002 -2.033812513471841E-002  0.970752335923717       1.605688875819810E-002  1.291944995201489E-003
  0.981460216163776       0.984506685447458       1.653127102697814E-002  2.076080005610515E-002  1.755975732521602E-002  1.418862502481388E-002  4.093604508165256E-002  3.829235125296444E-002  0.978786672947819       0.973570113388887       9.909502676788850E-003  6.600727783165562E-003  0.945118772734123       0.941615109147400       8.101673264832365E-004  1.090541928153749E-002
   1.01427336204736       0.960801376337256       0.956668092302653      -1.932112027241969E-002 -2.156296564647036E-002  0.938011901145746       0.934357249031557       2.304686802209802E-002  0.947174939532546       3.543539021891525E-002  3.225495202166351E-002  2.682324134593547E-002  4.761156009974327E-002  4.522159445929887E-002  4.277342299631855E-002  4.070588312185410E-002
 -4.742074664868772E-004  0.987719103303865       0.990948675862680       0.955092332751675       3.600647402292718E-003 -2.090111153413616E-003   1.01425575597004       2.421312268613982E-002  4.421643603847682E-002  4.161417202735007E-002  3.909693011975458E-002  2.020380925398971E-002  7.109658880852778E-003  1.337495622884658E-002  0.943657857726084       0.940063638645395     
  0.942437060693045       0.987679229244007       0.994147724891879       0.994213227220730       0.945491739725256      -2.357788558899675E-003  0.958703851352781       0.951342849625348       0.947566011740679       0.988708458987764       0.992397248766851       0.938335767059965        1.01081387535926       0.990953011783439       0.934530171304289       0.956693658604816     
  0.954677630293612       0.952526094207008       0.971726909701510       0.945715412374857       0.957540953765712       1.002237689349025E-002  6.417160496062979E-003   1.01656695651295        1.01515142811352        1.01658416062824        1.01881520581055       6.870987432538367E-004 -1.551305192828263E-003  1.054680309640092E-002  4.757465874821358E-002  4.481859930790857E-002
  4.227385341699229E-002  4.079130356981102E-002  0.950331786420379       0.946209954268629       0.930517247467042       2.102194570445670E-002  1.768085176935382E-002  2.670190082685917E-002  0.989648616764591       0.978381686724253       0.982260609649911       0.985996808715835       0.975093630114982       0.975080928422683       5.102023812351020E-002  4.859325061285975E-002
  4.613490886149033E-002  4.376605976848533E-002  4.069284017400090E-002  0.953609198838546       0.956015273979336       1.416786207936704E-002  1.707307267202091E-002  0.961581505405017       0.993322249143079       0.964104738212242       0.960078993642315       0.966659085326295       0.939953126979751       0.998194993215465        1.00119338832750       0.994348424160491     
  0.942265318136077       0.938568656765175        1.00204388554367       0.948695592974706       1.372720744823491E-002   1.01773338521746       2.831507108223567E-002  3.014248257130376E-003  0.936305153326792       0.952646743992046        1.00046759225968        1.00322090291868        1.00634624019350       0.967484952985094       0.944809996430815       0.949626373654838     
  0.945062155184160       6.535030743752336E-003  5.108658797901846E-002  4.818414462247151E-002  4.499496573707985E-002 -9.249889489432287E-003 -1.233978724153267E-002 -1.574949118936971E-002 -5.539272347685388E-003 -7.904881814639799E-003 -3.602768426849424E-003  0.987539509696166       0.979529706036375       0.999532006318032       0.944371071812455       0.936540095411449     
  0.932514715640527       2.474120200187230E-002  2.865668842466683E-002  2.413987432241836E-002  0.997042142094146       0.998384147169093       0.990916548551954        1.01809709154620        1.02017363437910       0.990462379044992       0.995989138560975       0.997110053909337       0.994239293966165       0.984318596237060       0.963124562011285       1.016285865362417E-002
  6.328130928187640E-003  0.934516042593832       0.950730792527343       0.948391208540452       3.176113742803417E-002  3.066699847078941E-002  2.868728323826316E-002  0.941965889326854       0.947321976113387       0.943899802833861       5.455674552737540E-002  5.205400102824085E-002  4.946460085938672E-002  0.983333104831813       0.986888247533590       0.987385513749736     