 VARIABLES = "X" "Y"
 ZONE T="  0.000000000000000E+000 " N=        9944  E=       19548
 ZONETYPE=FETRIANGLE DATAPACKING=BLOCK
  -19.9782054645671       -16.7460447536127       -13.5432470514743       -10.4462771124608       -7.39483127129757       -4.39431260318683       -1.43672854734527        1.47853524247441        4.40194279230921        7.38347804238703        10.4122197804982        13.5308676756442        16.7310607632789        20.0189460056259        20.0156650185539        20.0123451374732     
   20.0090067226427        20.0056742799471        20.0022854763303        19.9988742323503        19.9954939648514        19.9920871178897        19.9886881104951        19.9853470049941        19.9820070605281        19.9783478910574        16.7317203104092        13.4557822172063        10.1645634122701        6.87452312340184        3.53259687976399       0.170578499054329     
  -3.16443525887912       -6.48474521199279       -9.79114624567630       -13.0836966857758       -16.3754018560739       -20.0188035791356       -20.0155069002833       -20.0121812769038       -20.0088400757232       -20.0054989473046       -20.0021446450312       -19.9987763328347       -19.9953939522161       -19.9920253568386       -19.9886729196427       -19.9853365630757     
  -19.9819979716434       0.999327400511456       0.997807858227509       0.996292605537919       0.994787482688490       0.993237576374930       0.991626505574248       0.989949400142864       0.988210736214911       0.986410385770058       0.984546003877039       0.982603541731650       0.980591549558727       0.978493783833809       0.976322946731290       0.974075162509414     
  0.971742993539824       0.969323873648978       0.966816972454377       0.964219959559228       0.961533193718752       0.958751677072238       0.955867573582756       0.952869728941960       0.949748693296601       0.946533287739236       0.943201768038622       0.939721450047911       0.936134863899914       0.932429848273057       0.928584856203723       0.924564835991882     
  0.920400531674608       0.916086659399410       0.911609266721416       0.906959325947958       0.902130340824027       0.897115735100164       0.891902850641861       0.886478843307374       0.880835979900425       0.874966419958951       0.868871260088286       0.862543194177600       0.855974193770493       0.849154156217520       0.842074136312120       0.834725569978600     
  0.827102013547751       0.819194972973849       0.810996124901915       0.802497039108932       0.793688836093737       0.784563847165795       0.775113161996038       0.765212167811616       0.754950221838517       0.744315955544618       0.733298777346552       0.721891794040078       0.710082757114114       0.697859169152420       0.685213966617581       0.672135594522184     
  0.658610366866598       0.644631177875390       0.630184828066032       0.615254945250512       0.599830778936338       0.583892065499294       0.567426751366981       0.550419809238863       0.533462149662684       0.516471563743228       0.499415869015278       0.482295277323498       0.465109514075342       0.447208555549164       0.429909473539269       0.413210254482238     
  0.397108755016340       0.381588593007578       0.366564703189953       0.352018409513799       0.337945337196191       0.324354015413602       0.311229165588347       0.298571567023457       0.286381897950203       0.274641652984298       0.263325603026275       0.252386162874535       0.241810562646747       0.231586271215984       0.221705889869251       0.212161193368074     
  0.202940391026168       0.194032141362140       0.185431730267841       0.177122835102831       0.169095688557737       0.161333238620531       0.153828582434513       0.146575264205529       0.139567124232362       0.132797893382782       0.126260628234711       0.119949710200694       0.113859884175607       0.107985800475464       0.102322881522906       9.686671432169232E-002
  9.161307674403595E-002  8.655844802705899E-002  8.169906588069684E-002  7.703114231480125E-002  7.263220594575406E-002  6.839591172915735E-002  6.432387402564461E-002  6.041431708897656E-002  5.666732634111882E-002  5.306099226857341E-002  4.960683621373135E-002  4.630274037297600E-002  4.313108177862233E-002  4.006288036543010E-002  3.709503067082180E-002  3.420488486824100E-002
  3.139278165938696E-002  2.866374188312322E-002  2.602057265349391E-002  2.346719745969757E-002  2.100967754114752E-002  1.865557368448472E-002  1.652211886752617E-002  1.446909114672051E-002  1.251597763432846E-002  1.068146155992131E-002  8.989989838801836E-003  7.377797122599736E-003  5.809322244364343E-003  4.385888754703618E-003  3.099033074101152E-003  1.986317549584703E-003
  1.106808014945631E-003  5.265026996269248E-004  2.578808066395248E-004  2.241998295145209E-004  5.105518694714004E-004  1.151418255994907E-003  2.098619889435635E-003  3.263073900352556E-003  4.574322651153829E-003  5.978521981760346E-003  7.673488727246453E-003  9.454778104496762E-003  1.133813254643294E-002  1.323779099161022E-002  1.518358652935084E-002  1.722348370463831E-002
  1.940806170915171E-002  2.170379741103515E-002  2.412057817381877E-002  2.659903098707603E-002  2.914671544468082E-002  3.180754543091821E-002  3.462099084174660E-002  3.758454745392793E-002  4.068780069486568E-002  4.391881046154059E-002  4.726678500408155E-002  5.071992122894873E-002  5.427484780218767E-002  5.793144317311656E-002  6.168240690794702E-002  6.588701524764586E-002
  7.023655997756420E-002  7.472849850310673E-002  7.935973552863161E-002  8.406180545676031E-002  8.890371153648180E-002  9.391167974225488E-002  9.908365864799844E-002  0.104421768312175       0.109916340402442       0.115586791463548       0.121474034838974       0.127627694357136       0.134060789452157       0.140776546747551       0.147771542760943       0.155047055575051     
  0.162606234499624       0.170450159667330       0.178582841295732       0.187007821405294       0.195729611597478       0.204933009573391       0.214476786448953       0.224366755899630       0.234612054773419       0.245221036731771       0.256200932052959       0.267562195984495       0.279315695641249       0.291469075777002       0.304033289862025       0.317020809410166     
  0.330439305197813       0.344298886297182       0.358613177864509       0.373382721367745       0.388618423386201       0.404326654306881       0.420493239424091       0.437128814207381       0.454176344823686       0.471627874141303       0.489157799697021       0.506559584576983       0.523831497102064       0.540975891842563       0.557996420232160       0.574575015990379     
  0.590687860930143       0.606315013417458       0.621455134241053       0.636110037411962       0.650243551708978       0.663866810179451       0.676994844077480       0.689645327274114       0.701838341029862       0.713625049361275       0.725047086509630       0.736112327939448       0.746828910255349       0.757198881389157       0.767230525657983       0.776932553940687     
  0.786313677740764       0.795295869188466       0.803948184952070       0.812275419540961       0.820283451983138       0.827976929308873       0.835360198581795       0.842440522927524       0.849280499832142       0.855910049260076       0.862332290525132       0.868551040978418       0.874570202023637       0.880393797172178       0.886025148297051       0.891467395673991     
  0.896724014870109       0.901799381174085       0.906701244946883       0.911434167482633       0.916002663229166       0.920217591136370       0.924316620050341       0.928297874259209       0.932164240365577       0.935900787125453       0.939504513860129       0.942981779648360       0.946324838204815       0.949537305786183       0.952634520468324       0.955592415963103     
  0.958417652477803       0.961166602720905       0.963836219430463       0.966424670386550       0.968930710488220       0.971353770077162       0.973695033557686       0.975955555017812       0.978138657915919       0.980248254357131       0.982236243554886       0.984169731427943       0.986034079809615       0.987834043918859       0.989573597006469       0.991254046435580     
  0.992870967080589       0.994425642404773       0.995920596117859       0.997411609426060      -1.016422785031325E-003 -8.360738217095902E-004 -9.427217422242599E-004  0.995565481264200       0.997008213921134       0.995556647566883       0.996806064262841      -2.434365124465006E-003 -3.930351705303248E-004  0.995245635794744       0.996024064871646      -2.029168104549715E-003
  0.994173288455624      -2.341128146799091E-003  0.993702724687156       0.992048235475248      -5.639340245494280E-004  0.992451375903921       0.993433060989906      -2.338383682438937E-003 -3.919181163006435E-003  0.994553789562265       0.994715038909716       0.998442456948995      -1.441724271592130E-003  3.356497540935438E-004  0.990700025938943       0.988928702144803     
  0.987153363348744       0.991543794285760       0.997752670491539       0.993040275274131       0.990834037214271       2.383983829424998E-004 -1.970841385852826E-003 -3.998288195539141E-003  0.992431532534985       0.997003625018755        1.00008965018216       0.997717045910989        1.00076867589607      -3.348573719152856E-003  1.337249467443182E-003  0.996133999855562     
  0.996519085965295       0.999084013128355       0.989106760259511       0.989713067991113       0.987860948593091       0.985946249713060       0.990564434934916       0.992340789732704       1.351006686965080E-003 -6.432488606764605E-004  4.033774310823133E-003   1.00187587241355       0.990092446578204      -5.357133091571302E-003  2.579293310332101E-003  0.990548927220783     
  0.987225010662782       0.988614314447259       2.611988733570820E-003 -4.042792576201195E-003  0.991289919803727       0.999495404963711       0.998956891396961       4.028703948396472E-003  0.988717495403996      -2.608538638842282E-003 -3.772355906532585E-003   1.00278427104376        1.00085295116157       0.994443198986335       0.998580521469700        1.00065556876638     
  0.993334964030820       7.330746251390147E-003 -2.407448599870866E-003  0.999225770588896       0.998372288338764       5.647408683044171E-003  0.985261800714452       0.983278030371559       0.991495708597085       0.997614211055404       0.986514683117259      -5.816189771111149E-003  0.987918954780221       8.984427820465173E-003 -5.616669731349861E-004  6.022987222867445E-004
 -5.371607476961918E-003  0.983849919171689        1.00306182857317       0.986729832771565       0.984522016909052       0.997403091838918       0.995369418201250      -1.552644436542460E-003   1.00365252608056        1.00553123186269        1.00138688220492       0.984370771817195       0.982124560310673        1.00049100399496       0.993803308838673       0.985730197307480     
 -4.800694763324574E-003  5.620065361569986E-003  1.904782402973179E-003  7.369681838038477E-003 -7.146911857790765E-003 -1.598135995658449E-003 -1.903960903664763E-004  5.394307204812911E-004  2.034400383650282E-003  0.994320974411851        1.00223105156924       0.995222471506835       0.987857092625919       0.992142872772370       0.981467681443336       0.979306627636297     
  0.982296914770792       3.721462328374705E-003 -5.569740930211354E-003 -7.437283085467983E-003  0.977153073546098       0.989325453232839       5.641246976950147E-003  0.985580139890591       0.990528647654095       0.993280546023246       0.999997792401811       0.999224957212127       3.478996995325474E-003   1.00498868418964        1.00395830723213       0.996167950987498     
  0.998120999300452       6.141514104769580E-003  0.999617817236806        1.00192141573821       1.073970343430750E-002   1.00253872444554        1.00648051633016        1.00422816924764        1.00682734725442       0.989667492769041       0.992826382150311       0.988648759427299       1.483521904089312E-003  7.421174411180075E-003  0.989614942045640       0.985499050447377     
  0.982838460237672       8.759461429750615E-003 -6.015437002334556E-003 -3.789355313334956E-003 -2.618368827841766E-003 -3.874296963430935E-003  0.990947354689550       0.992062581692116       0.980173892353734       0.977975336064019       0.975590652879664       1.126396396005570E-002  0.991653563806615       0.995609612968836       0.994582136707570       0.996701049502524     
  5.247866269203988E-003  1.322113478528321E-002  0.987258162829882       0.986951626437352        1.00284325913015       0.988888165151903       9.314616997601331E-003  0.986926767455926      -4.038901052996585E-003 -7.964398264429674E-003  0.980968133943625       0.979732239901738       1.270364729329946E-002  0.981521056298692       0.977240738672458      -6.008014555659776E-003
  0.985013187175964      -7.511316873518152E-003  1.075918774365371E-002  0.994187282828345      -2.864613437746455E-003  3.521014779026316E-003  0.974957715613234       1.123957391409601E-002 -3.836808345820503E-004  1.132076295219302E-003  1.522260597015247E-002 -1.044761209271449E-003  7.178416320158579E-003  0.978354058579764      -6.359332950934060E-003 -9.062455639385257E-003
  9.213955057995387E-003   1.00518497838643        1.00807855742707       0.979064326468051       0.976606683793267       0.973483943947807       0.984155932279367       0.982008966814234       0.993307116380428      -1.421994050662004E-003  1.316361528586164E-002 -9.778525294474458E-003  0.976323812438446       0.973956595169576       1.479042271944704E-002  4.847999789885826E-003
  8.509841286937716E-003  1.127686381499488E-002  0.972600815036439       0.970213172018609      -8.172846763954741E-003 -1.032455963968848E-002  2.955644545947296E-004  1.291927232895705E-002  0.983355286974591       0.980527632317800       0.982420741103810       0.979791656477443       0.980511059863064       0.980061653798713        1.00850667111456        1.00523610932518     
 -5.785240544498890E-003  8.814287350017293E-004   1.00176356855082        1.00100169462057       0.984424544825223        1.00386447796779        1.00351086660600       0.971459312045115       1.696965520994102E-002  0.981464723049305       0.982856225436302       1.088046994350200E-002  0.998287574924880       0.989188379691823       0.968881417064305      -3.754263446724217E-003
 -5.206857977442677E-003  0.985184905805948       0.995638844780425       1.513411746617011E-002  0.979113796479425       2.885641315110116E-003  1.735069853330500E-002  1.517872396853408E-002  0.973117197128355        1.00748199992286       0.978224915804095        1.00096309921026       0.999890400279080       0.977962174520596       0.997175276818074       1.320999137282041E-002
 -4.203321037705959E-003 -8.198486277309014E-003 -2.529946244853198E-003 -9.977253502435413E-003 -9.673613183912038E-003  3.269028376913004E-003  0.975249871730753       0.975515181225013       0.972934385569072       1.127220467611043E-002   1.00913038522605       0.970414935594296       0.967941984386466       6.990669050953064E-003  0.971307598451652       0.965447861872213     
  0.963204308478007       8.580634354728625E-003 -7.943863543354678E-003 -1.085674466115106E-002 -2.012474145953365E-003  1.962467265437564E-002  1.742896714926755E-002  0.996050272655474        1.00268923954304      -1.181568989916202E-002  0.982550677858366       0.979366889578550      -6.041540216480346E-004 -7.076616282176200E-003  1.505039441856087E-002   1.00159996333933     
 -1.047933315169094E-002 -1.282438898294941E-002  0.977302325478754       0.976818856662172       9.261226581560547E-003  9.864656831807667E-003  0.987227606490734        1.01060084754286       0.990128401404573       1.545391868615032E-002  2.262831760915830E-003  0.969094390558984       0.966595650134764       0.963954231300930       0.960886160523560       1.742141931663592E-002
  8.982127534504485E-005  0.970226232915024       1.357414075403491E-002  1.926606297130425E-002 -1.219635165354173E-002  0.993028651733605       0.994429325668807       0.997170105913647       6.922473038111564E-003 -6.569894295844965E-003   1.00581168007064        1.00577289449373       0.967382611465346      -5.539670123621750E-003 -4.971744683809282E-003  4.469097952254198E-003
  0.970480795177761       1.241517022028418E-002  0.998812525678563        1.00050175806550       2.200229566483182E-002  1.983727075764257E-002  1.750094390406244E-002 -3.729135763672006E-003  2.167087303002710E-002  0.974668992509083       0.971846189699590      -1.460731024028882E-002  0.987599580934073      -1.041210236537696E-002   1.01023796835780       1.550862324350333E-002
  8.978647585573504E-003  1.983149319793023E-002   1.00440729383510       0.967898709087005       0.965313915346789       0.995802526678866       0.962340074886561       2.439357776721474E-002  5.914824375484634E-003  2.231970453706634E-002   1.00840463335437       6.793407378876966E-003  4.105580152820473E-003  3.778390107201780E-003  1.781872929164039E-002  3.066268494927294E-003
 -8.666365724420618E-003  0.990099631544214       0.985110323380816       0.983091656631039       0.985507562193710       0.987544341223435       0.994743220317372       1.493089794377870E-002 -1.594990289086285E-003  0.965983023502293       2.043278526906332E-002  0.969175278550696       0.990607191606915       0.989625117622541       0.987270806332406       0.985057978576685     
  0.987952380683307       0.988887652638565      -1.226680040825825E-002 -3.217372119418910E-003  0.999993122080846       0.984222499704679       0.968081569650014       0.997683853095249       0.996461483779139       2.674195724672137E-002   1.00788394199188        1.00611439605047        1.00964816295204        1.01134220646492      -1.288415964470226E-002 -1.549257220367416E-002
 -8.284581339726307E-003  2.012466937248559E-002  1.760774031302748E-002  1.485118839959616E-002 -9.894636151487168E-003  0.990419030507726        1.00875050757262       5.920490420120876E-003  0.980228352750289      -6.998809743245499E-003  0.992100844909756       0.992805106400166       0.993956783907932       1.615886844123769E-003  0.972032790611503       1.282688694295802E-002
  1.239629539463790E-002  0.980686382775418       0.970411560737896       0.959018760057930       0.962846068253374       0.959961225271861        1.00391230535074       0.964490341465154       0.967512889211239       0.973397479625088       0.971716282025467       0.975385915235693       0.976298301537600       0.974681266987997       0.973045729526371       0.956977173536468     
  0.953696495003156      -5.110609384860502E-003 -1.265613129489002E-002   1.01184382978323        1.01304759282114       0.982160804451341       0.979590966808928       6.284363260672595E-003  4.730119931836197E-004  9.798718849275540E-004  6.540028930037812E-004 -6.227535903410884E-003   1.01112877744539        1.00682407006522      -1.024592935622325E-002  2.930571039502549E-002
  2.645205617392240E-002 -1.499101516221538E-002  9.503828904287269E-003 -1.534709479184668E-002 -1.828362856317780E-002  0.991769485661445       0.989864236231125      -1.247477514748796E-002 -1.522099711359226E-002  2.650295989731235E-002   1.01074537683973       1.214659269838254E-002  0.986252493878862       0.986839366420692        1.00281445973375        1.00881129830695     
   1.01167833839740       0.987458970146855       0.961659148116014       0.958711487191216       0.955480062593890       0.951947093162203      -2.759798082904869E-003  0.977645820159302       0.984685926181278       0.984102136103939       0.982389460559887        1.00894737689761       0.977264716076909      -1.214072398193867E-002  0.983856001283827       0.966835169868537     
  0.968749956997276       0.970099278378203       0.971270480382324        1.01084291395271        1.01141427129235      -8.627603910989552E-003 -1.792139798476424E-002  0.963253723948568       0.973657488978456       0.970733169897360       6.537037248661719E-003   1.00695700774415      -4.325881351401810E-003 -7.943036872491850E-003   1.01163777640712        1.00396897333223     
   1.00184507761980        1.01263450995939       2.296737734393579E-002  2.915271929927553E-002  2.645663081739732E-002 -9.331853903155192E-003  2.230900835220057E-002  2.409425122600078E-002  2.321281775466428E-002  0.977912493372079       0.976472119688254       3.537393063928922E-003  2.737081945230113E-003  0.998859230948797       9.420322969050599E-003   1.01371644935656     
  0.960717691371401       0.987433472480672       0.993153066435637       0.995000818851461       0.957440152490017      -1.192820530782190E-002 -1.511888536632559E-002  0.964339292437577       0.979985882569838      -1.510645338072720E-002  0.981065344915280       0.984280562086065       0.990653108474216        1.00624568523347       0.972747724344403       0.968920790418071     
  0.965852793594199       0.963562221818505       0.967537937315729        1.01309012865044      -7.476059406641662E-003 -1.097683028977962E-002  1.192617378848117E-002  2.457264646288110E-002  2.051367532687745E-002  1.772725854911054E-002  3.206247347597360E-002  2.961163662965941E-002  2.815454779178130E-002   1.00480250974900       1.475909626331929E-002 -1.759242511243304E-003
 -1.763676758024791E-003   1.01392739646263        1.01623522174856      -1.523056187031198E-002  0.954322336722220       0.951196286118333       3.205232722229730E-002  2.978503546123087E-002  2.754473203685533E-002 -1.252942624499100E-002   1.01359763032935        1.01728979594813       0.975184635155554       0.969736286021555      -5.419960694072610E-003  9.234037644024877E-003
  6.624646453296786E-003 -1.830279470908039E-002   1.01384717061582        1.01494361165138       2.453191162921549E-002  2.113971612800528E-002  0.965647515975183       0.967168283262288       0.968665096734974       0.968848892723438       0.997572394507148        1.00531285434814        1.00804295497559        1.00384563281119      -1.045394863606500E-002 -1.296232171603488E-002
 -1.513383619563212E-002  0.948001288686216      -1.076885229123339E-002 -1.417434132204874E-002  0.975086533625395       0.955813853267658        1.00880471604569        1.01164248894175       0.980890768974039      -1.406149603320304E-002  0.991008873380452      -1.769900687405587E-002 -2.098658534948816E-002  3.494539265985033E-002  3.277836068494425E-002  3.065250513958504E-002
  2.868845843372559E-002  0.972139194549001       0.974940692947990        1.00076797904120       0.999521370276056       2.384681689175571E-002   1.00696439143866       4.154545887841296E-004  6.327129175830058E-003  3.476654093229420E-003  0.966447499396786       0.968830173618285       0.978097088042907       2.428886823365538E-002  1.819779539084105E-002  1.555368418743347E-002
  0.999529125732216        1.00206935821648       0.998608564033528        1.00573031621584        1.01439820984984        1.01459827556743       1.263103451288930E-002   1.00332840429634       3.496350435402791E-002  3.206870858679626E-002  0.952752694432017       0.949484797558951        1.00515704280166       0.945903977138402       3.785549547984676E-002  3.563305315355814E-002
  3.352706995409713E-002   1.00879020693892       0.960576243452198       0.957078420039667       1.867761066554267E-002  0.962210135963449       0.984717621633168       0.976735991848290      -1.673798277776360E-002  0.965345840319364       2.085770674152735E-002  1.781528237925318E-002  0.963921003349592       0.965916904867024       2.626704488918875E-004 -6.901041738542080E-003
 -1.393436185803634E-002  9.646228431344611E-003  0.963640244180548       0.961434156891728       0.967767882347445      -1.753907345245221E-002  8.929053571588194E-003  0.954273773223400       1.462975129074973E-002  2.194142082708262E-002  2.533008262933423E-002 -1.244316609683176E-002 -1.538218106057304E-002 -1.381729531204425E-002 -1.715972859621274E-002 -1.752806753594786E-002
  0.954288283988081       0.958476253830423      -2.159064516510742E-002  4.086689685377981E-002  3.847475609183237E-002  3.614237417339313E-002  3.436185932626856E-002  6.611986836456561E-003   1.01217661382878        1.01674990359730        1.01870020746283        1.00953243411832        1.01643540716145       0.971522643650463       0.974921348690057       0.960277428850491     
 -2.069938095694314E-003  3.810501700718443E-002  3.532810727241181E-002  3.228998798942032E-002  0.951412026377138       0.947628435442704       2.424374535247231E-002  0.996499092027160       4.105051054739221E-003  3.770465390697694E-003 -1.799834703824772E-002 -1.582724722303728E-002 -1.770818282335051E-002  0.962264281706344       0.958355595923041       0.977846033668952     
  6.214720222688713E-003  4.082573059534976E-003  1.291237937605167E-002  1.161842817622804E-002  0.943061570987241       0.948376858746489      -1.829776951830245E-002 -1.821911379076707E-002 -1.753683971148611E-002 -2.133339231336826E-002  0.964582805194530       4.403443560972570E-002  4.159238067408123E-002  3.867241345405608E-002  1.929729683547537E-002  0.954054257897865     
  0.957474328149098       0.959644007251610       0.950516505490254       0.956209992113328       0.952652220912639       0.949039973208460       8.245728039809538E-003 -1.238660350115137E-002  0.997528145167289       0.974077157744304       0.972861442412438      -2.034077269351387E-002 -2.029389462258599E-002  0.970524067223073       1.590245802838519E-002  1.202109690834085E-003
  0.981216794018350       0.984261069277769       1.637138732563343E-002  2.110078568169054E-002  1.789022008637611E-002  1.451001270038614E-002  4.135042797701627E-002  3.869678196326587E-002  0.978546670654584       0.973339825303676       9.776241014822998E-003  6.477290955977014E-003  0.944928712341390       0.941431098960326       7.145242548938489E-004  1.121333732276979E-002
   1.01397784763912       0.960470966786575       0.956333919302797      -1.930807194256959E-002 -2.155855506643590E-002  0.937834221969360       0.934186071551111       2.286083802148365E-002  0.946980877533427       3.582861735872612E-002  3.263563227400909E-002  2.662042071132901E-002  4.732639401231720E-002  4.494681791379393E-002  4.250828459168580E-002  4.044840260841512E-002
 -2.068031599680363E-004  0.987468727405403       0.990696658292594       0.954884642605247       3.492065402165177E-003 -2.166442218666889E-003   1.01398423829039       2.456625914112385E-002  4.464058944419594E-002  4.202905798199593E-002  3.950308566317179E-002  2.002787815294931E-002  7.407519956346061E-003  1.322529073539315E-002  0.943469683661832       0.939881485270117     
  0.942088753457597       0.987431737741768       0.993891194285629       0.993959991926142       0.945146405545872      -2.445373716274543E-003  0.958490004326937       0.951141370130489       0.947370885514869       0.988399365618861       0.992089872009975       0.937983249316974        1.01054358207550       0.990703903013300       0.934174077072270       0.956360100032438     
  0.954341836594824       0.952188251445279       0.971405616439455       0.945523544935395       0.957330035392026       9.882558386248210E-003  6.286706749801725E-003   1.01628637575402        1.01486552585843        1.01629647697685        1.01852982420407       5.856337158269039E-004 -1.651489212599812E-003  1.085903198680759E-002  4.800831517559139E-002  4.524200597207848E-002
  4.268953791209923E-002  4.120087773336846E-002  0.949992002140126       0.945866523721991       0.930157242645086       2.136518462323266E-002  1.801524176609461E-002  2.706376521731815E-002  0.989338543830656       0.978065151352526       0.981946727370577       0.985684999011147       0.974774863032670       0.974761432352008       5.072352141851039E-002  4.830740599124084E-002
  4.585878341717560E-002  4.349849119797657E-002  4.043773709152096E-002  0.953404336156766       0.955807383715807       1.449364402057266E-002  1.690716349509163E-002  0.961363095110070       0.993013823908360       0.963884503909025       0.959865068081907       0.966436760553398       0.939602393069805       0.997891296878943        1.00089100174800       0.994097859698799     
  0.942078705855467       0.938388366427981        1.00178319139528       0.948354434536931       1.357105175787245E-002   1.01746254969183       2.868205815562488E-002  2.900642893836482E-003  0.936129511671193       0.952309072384749        1.00021137549767        1.00295628166468        1.00608243196000       0.967159739182292       0.944465656596302       0.949427392881664     
  0.944870413832772       6.837476577917325E-003  5.152998627904665E-002  4.861697406361280E-002  4.541747665271056E-002 -9.035568712784410E-003 -1.213493873513528E-002 -1.554873877360043E-002 -5.309042488061362E-003 -7.675964393561651E-003 -3.355902713901797E-003  0.987294932244960       0.979213198290137       0.999227622907205       0.944180979637896       0.936186529970881     
  0.932157373211871       2.509674956948709E-002  2.902490844126199E-002  2.394739732936240E-002  0.996788310424546       0.998132275070419       0.990670316487173        1.01780512298457        1.01989504315065       0.990151355920837       0.995683462016634       0.996803146702752       0.993929692665321       0.984075632664623       0.962795507089230       1.001599526972044E-002
  6.190094529200313E-003  0.934342641033940       0.950391319413826       0.948049974766873       3.153878846307556E-002  3.044840426836201E-002  2.847531775659401E-002  0.941618324728147       0.946979871670590       0.943554595534918       5.424839950127840E-002  5.175682791129486E-002  4.917847704801106E-002  0.983018872332533       0.986575664915339       0.987072167305087     