 VARIABLES = "X" "Y" "RO" "U" "V" "P" "M"
 ZONE T="  0.000000000000000E+000 " N=        9944  E=       19548
 ZONETYPE=FETRIANGLE DATAPACKING=BLOCK
 VARLOCATION=([3-7]=CELLCENTERED)
  -19.9782054645671       -16.7460447536127       -13.5432470514743       -10.4462771124608       -7.39483127129757       -4.39431260318683       -1.43672854734527        1.47853524247441        4.40194279230921        7.38347804238703        10.4122197804982        13.5308676756442        16.7310607632789        20.0189460056259        20.0156650185539        20.0123451374732     
   20.0090067226427        20.0056742799471        20.0022854763303        19.9988742323503        19.9954939648514        19.9920871178897        19.9886881104951        19.9853470049941        19.9820070605281        19.9783478910574        16.7317203104092        13.4557822172063        10.1645634122701        6.87452312340184        3.53259687976399       0.170578499054329     
  -3.16443525887912       -6.48474521199279       -9.79114624567630       -13.0836966857758       -16.3754018560739       -20.0188035791356       -20.0155069002833       -20.0121812769038       -20.0088400757232       -20.0054989473046       -20.0021446450312       -19.9987763328347       -19.9953939522161       -19.9920253568386       -19.9886729196427       -19.9853365630757     
  -19.9819979716434       0.999851453709976       0.998335755611560       0.996824424153472       0.995323281502329       0.993777560564595       0.992170931272764       0.990498545103693       0.988764873422544       0.986969795529161       0.985110979932498       0.983174427049129       0.981168668033654       0.979077516326534       0.976913639952003       0.974673179646952     
  0.972348725741981       0.969937723713051       0.967439347972867       0.964851276841480       0.962173867332766       0.959402137356642       0.956528276122929       0.953541166135850       0.950431388061483       0.947227653777099       0.943908291591324       0.940440731069267       0.936867340106098       0.933175995051145       0.929345222212925       0.925340094388295     
  0.921191237338168       0.916893383370026       0.912432630054276       0.907799983372800       0.902988973472742       0.897993053109573       0.892799618258883       0.887395882127915       0.881774152201785       0.875926631200529       0.869854426858327       0.863550276554052       0.857006198207117       0.850212142714901       0.843159212311162       0.835838885975324     
  0.828244750676186       0.820368345282426       0.812201371771361       0.803735417365203       0.794961612091644       0.785872281030387       0.776458500108785       0.766596079116165       0.756373945711829       0.745780677675618       0.734805607448123       0.723441731107247       0.711676687624391       0.699497843705229       0.686897954619173       0.673865273971534     
  0.660385902935984       0.646452470907605       0.632051503665662       0.617166330968867       0.601785853268624       0.585889449769953       0.569464650216875       0.552495982630855       0.535572718103323       0.518612680850540       0.501583587246721       0.484485488974070       0.467317960219557       0.449431263918863       0.432141283873695       0.415446402984879     
  0.399344872904705       0.383820695787807       0.368789125081106       0.354231771743418       0.340144540639671       0.326536248755802       0.313391869888373       0.300712445670907       0.288498912497774       0.276732975289043       0.265389577593457       0.254421219406792       0.243815274806967       0.233559344454779       0.223646166781064       0.214067643423297     
  0.204812089091881       0.195868259003908       0.187231554578951       0.178885712082594       0.170821040447988       0.163020519335237       0.155477316170760       0.148185042594730       0.141137603206667       0.134328788015239       0.127751703961047       0.121400786126309       0.115270831558059       0.109356538472085       0.103653379081931       9.815698852667418E-002
  9.286319159826768E-002  8.776851763693586E-002  8.286925079709816E-002  7.816164745613317E-002  7.372400678654302E-002  6.944915042431764E-002  6.533876555500492E-002  6.139112006090391E-002  5.760636238518991E-002  5.396241584086957E-002  5.047097272037992E-002  4.712995102807282E-002  4.392158114274863E-002  4.081657136423657E-002  3.781178167550261E-002  3.488426355272329E-002
  3.203431783813498E-002  2.926698447251537E-002  2.658505583638683E-002  2.399245060442493E-002  2.149525402587749E-002  1.910107600985776E-002  1.692923622935269E-002  1.483704875649009E-002  1.284422509697632E-002  1.096970864552440E-002  9.238421523776007E-003  7.584870536002221E-003  5.971826788737300E-003  4.502630890448720E-003  3.167623298222592E-003  2.004216007190643E-003
  1.072234043755066E-003  4.405375290508952E-004  1.267909313739088E-004  4.951543000808467E-005  2.830304692490735E-004  8.744694719319580E-004  1.776589416554377E-003  2.901299095429302E-003  4.177689658015032E-003  5.551288569410982E-003  7.215267879730696E-003  8.968815759094213E-003  1.082671489601743E-002  1.270375312602715E-002  1.462887847221900E-002  1.664930087258330E-002
  1.881507345065378E-002  2.109295251191427E-002  2.349271328372658E-002  2.595532586008677E-002  2.848819438393131E-002  3.113493002210649E-002  3.393481385893611E-002  3.688539572404631E-002  3.997633441293349E-002  4.319574804907529E-002  4.653288074795171E-002  4.997595402810263E-002  5.352158761018860E-002  5.716964241663745E-002  6.091281658221930E-002  6.510975295018857E-002
  6.945242987850749E-002  7.393831027641364E-002  7.856430223839514E-002  8.326199530261737E-002  8.810030797107719E-002  9.310545388142928E-002  9.827539497874475E-002  0.103612260995126       0.109106393075705       0.114777214155862       0.120665659220523       0.126821396691640       0.133257493025840       0.139977217199496       0.146977179574141       0.154258689750341     
  0.161824926179989       0.169676992396333       0.177818921042557       0.186254272510308       0.194987574206034       0.204203896125638       0.213761836843215       0.223667219584398       0.233929190244598       0.244556104322235       0.255555185005101       0.266936878253529       0.278712034213041       0.290888264985145       0.303476486570554       0.316489123980056     
  0.329933778882026       0.343820481324534       0.358162768643872       0.372961052314366       0.388226112166223       0.403964165929383       0.420160832043613       0.436826572653652       0.453904051150182       0.471385098092107       0.488943400596138       0.506372003620562       0.523669139501757       0.540837160991069       0.557879746477004       0.574478504326317     
  0.590609736011310       0.606253643874017       0.621409063158904       0.636077986964332       0.650224385595542       0.663859571510775       0.676998744876847       0.689659735005115       0.701862764208521       0.713659146924819       0.725090645783099       0.736165224343831       0.746891095087634       0.757270364035593       0.767311366716886       0.777022854090851     
  0.786413566902449       0.795405400948327       0.804067477908764       0.812404583763313       0.820422582079552       0.828126095935567       0.835519442170524       0.842609853340564       0.849459977505922       0.856099745172868       0.862532246862783       0.868761271227276       0.874790691027748       0.880624502064233       0.886265998662833       0.891718295141684     
  0.896984844154284       0.902070002661037       0.906981512594022       0.911723924127024       0.916301743718865       0.920525420019930       0.924633095758238       0.928622885644981       0.932497678355554       0.936242506502917       0.939854358944191       0.943339605844554       0.946690479769218       0.949910601391470       0.953015341880165       0.955980571404965     
  0.958812959076737       0.961569016330936       0.964245687335920       0.966841132980398       0.969354101394456       0.971784016603176       0.974132060473055       0.976399283276674       0.978589010746581       0.980705158950270       0.982699464024909       0.984639232520352       0.986509770962812       0.988315840864282       0.990061419802032       0.991747810572229     
  0.993370562547091       0.994930953298870       0.996431505458202       0.997928204550474      -1.164549818405057E-003 -9.420688020854223E-004 -1.133848309671677E-003  0.996101145744379       0.997541538721763       0.996095716632893       0.997317115636957      -2.596480601120769E-003 -4.532464114620903E-004  0.995751740664864       0.996530355374321      -2.111838776413917E-003
  0.994712700351391      -2.465563656260144E-003  0.994204118486868       0.992543803211258      -8.047011003509620E-004  0.992995673384420       0.993977679837037      -2.540859033732815E-003 -4.060051853450948E-003  0.995056461239654       0.995215471939823       0.998958013731341      -1.478411835053002E-003  3.246562786782655E-004  0.991248964532972       0.989482283001026     
  0.987711705340320       0.992092856152992       0.998263558024932       0.993538147003937       0.991324320283932      -5.291488727944760E-005 -2.229768690071269E-003 -4.170037438106770E-003  0.992981111744863       0.997509666713261        1.00060813656389       0.998253116372578        1.00129239785139      -3.408548778673133E-003  1.376564581917540E-003  0.996633997265218     
  0.997060946271421       0.999613527856741       0.989592559776507       0.990266311255275       0.988418456331243       0.986508244189427       0.991055179853028       0.992833248861396       1.018958520939774E-003 -9.473311290781485E-004  3.631270888959575E-003   1.00239557870906       0.990577761189874      -5.509609540538777E-003  2.668386574287276E-003  0.991102317578342     
  0.987704271856567       0.989096899354147       2.243190703766385E-003 -4.254048924781647E-003  0.991843832920046        1.00002995263720       0.999467264599608       4.166635386822454E-003  0.989274411359758      -2.622035992627587E-003 -3.875839709878798E-003   1.00330810420989        1.00136742526094       0.994988852499406       0.999119213106425        1.00119182657994     
  0.993885262037323       7.560177455603250E-003 -2.693294532244741E-003  0.999739741211162       0.998877449439362       5.833269321630595E-003  0.985734648038211       0.983744451712812       0.991982798328000       0.998113583882318       0.986990975398507      -5.995288829530998E-003  0.988398312287732       9.249127399957785E-003 -5.498699535430568E-004  6.635253658074619E-004
 -5.453139502712125E-003  0.984417526895896        1.00357850210251       0.987291367937713       0.985089672235569       0.997947316204176       0.995916449416801      -1.518188226860363E-003   1.00417305921753        1.00605007616179        1.00191720804424       0.984840682874477       0.982587830398753        1.00100049845547       0.994296861413235       0.986203724769420     
 -4.837077452147733E-003  5.832039072799621E-003  1.528701083844288E-003  7.616761231826509E-003 -7.204389397287061E-003 -1.910909070636334E-003 -1.071191631850545E-004  1.989443394604803E-004  2.145413638212224E-003  0.994872047215058        1.00274373272437       0.995716437116752       0.988417590921421       0.992697663071126       0.982043441708836       0.979888578299323     
  0.982871835647285       3.882952094503668E-003 -5.693493581360370E-003 -7.584429690043607E-003  0.977741589725369       0.989806927786750       5.207392882732204E-003  0.986142243791599       0.991011304796371       0.993836469177095        1.00050185725271       0.999723509103659       3.069576025986052E-003   1.00551242601661        1.00448716102045       0.996716280940029     
  0.998668333355997       6.387835703309760E-003   1.00015882445063        1.00245970793286       1.104428097695575E-002   1.00304729439633        1.00700866382736        1.00474158457281        1.00734161742804       0.990226600652655       0.993314546886602       0.989127755525827       1.617082425028730E-003  6.957363804366169E-003  0.990171452453538       0.986066169273170     
  0.983413811655577       9.039531876940284E-003 -6.233390035424054E-003 -4.075824808303245E-003 -2.561229390771699E-003 -3.864168459173928E-003  0.991507570811530       0.992623842133725       0.980754112120263       0.978561386108608       0.976183712505586       1.074845057941352E-002  0.992137024544263       0.996161574776280       0.995139351082284       0.997194808563376     
  4.806961102867224E-003  1.268502426341655E-002  0.987735019706186       0.987426517997312        1.00337756312873       0.989452171547246       8.823385151555698E-003  0.987493364480194      -4.294582913223553E-003 -8.151498904816357E-003  0.981547404292880       0.980187821335001       1.305009846424007E-002  0.981982511797985       0.977688483722872      -6.261807990921046E-003
  0.985483866279118      -7.613239828122527E-003  1.108446441659902E-002  0.994675914051855      -3.185618212343930E-003  3.707591117162257E-003  0.975399001012613       1.071961602109632E-002 -7.324162713457071E-004  7.484108698960258E-004  1.466752304857303E-002 -9.393956847500640E-004  6.707900891871793E-003  0.978804636573224      -6.370496021869823E-003 -9.092292274435322E-003
  8.716401302157015E-003   1.00571824219852        1.00861110665231       0.979647871827962       0.977197146689861       0.974086562658473       0.984729579681926       0.982587887995204       0.993869809687960      -1.778702452165964E-003  1.262648485656893E-002 -9.900719140873969E-003  0.976769298498078       0.974395439768995       1.517670875381546E-002  4.399732781946104E-003
  8.812819006975977E-003  1.075310368327850E-002  0.973035263932873       0.970640771242354      -8.395348368601967E-003 -1.051775393915891E-002 -9.542890342232875E-005  1.328632113319628E-002  0.983821947461933       0.980984747422389       0.982883084671164       0.980245953018523       0.981092331801239       0.980646015276197        1.00902579222769        1.00574584278126     
 -6.072544470303948E-003  1.038729913606716E-003   1.00226654742000        1.00149925258159       0.984891045704173        1.00440105710519        1.00405095152850       0.971891226533207       1.739391077154314E-002  0.981923028460323       0.983317631557850       1.122907024973637E-002  0.998780766408812       0.989667022693370       0.969306618100013      -3.674295596495853E-003
 -5.172602534755450E-003  0.985757543562077       0.996127333110645       1.553840734128456E-002  0.979566151178126       2.468842232339556E-003  1.677651417499076E-002  1.462300251149642E-002  0.973718845073544        1.00800560037316       0.978812217579786        1.00150635583536        1.00043980686179       0.978411715283676       0.997728651730820       1.359737290074073E-002
 -4.532006774024157E-003 -8.452725470399406E-003 -2.893527343501625E-003 -1.013463008654484E-002 -9.752929795802476E-003  3.485240934017767E-003  0.975843819975801       0.975958402392535       0.973370686754802       1.164446116760207E-002   1.00965800857100       0.971026143272383       0.968560928126857       6.512857244869271E-003  0.971917170518185       0.966074940856948     
  0.963837981777611       8.908447358933459E-003 -7.928790679280784E-003 -1.085711383190397E-002 -1.884354642352877E-003  1.903182248734266E-002  1.685414777260713E-002  0.996608951428198        1.00323511168054      -1.195194330644325E-002  0.983129968766783       0.979956763861731      -1.001958447005872E-003 -7.377613713490211E-003  1.449370974662487E-002   1.00215145020595     
 -1.070640761352563E-002 -1.302422090620655E-002  0.977750296417589       0.977264395059877       8.756037178765524E-003  9.349307108745592E-003  0.987700151998011        1.01113135690532       0.990606347896832       1.587286311162690E-002  1.838674350679849E-003  0.969710167892042       0.967218792454338       0.964585140396198       0.961527648224698       1.786180045198186E-002
  2.773546690530752E-004  0.970655522801695       1.397672386646700E-002  1.972864606711379E-002 -1.229938187282825E-002  0.993512326937108       0.994912855427338       0.997658215418647       6.437694347945965E-003 -6.511618536652260E-003   1.00634876839285        1.00631571562603       0.967804387012368      -5.875533120626562E-003 -4.868496208164214E-003  4.013486901611871E-003
  0.971093822358406       1.281535203439088E-002  0.999367477793615        1.00105843501414       2.139188523702531E-002  1.924395005539829E-002  1.692551326448163E-002 -4.098508535764021E-003  2.217229101049709E-002  0.975109671981845       0.972279817690499      -1.473763038058789E-002  0.988069957262433      -1.066817746517769E-002   1.01076135989160       1.594004872158811E-002
  9.330247700711700E-003  2.031030583278317E-002   1.00495553297509       0.968518733941897       0.965940494856777       0.996285645631759       0.962976836977379       2.376797579973245E-002  6.190899409423283E-003  2.170905635076653E-002   1.00894285263810       6.302737984878053E-003  3.642664432940548E-003  3.308194232918878E-003  1.827427777262831E-002  3.312252296501326E-003
 -8.977618144719909E-003  0.990574598494295       0.985576264766182       0.983552670949304       0.985973083018087       0.988012601835327       0.995307463795010       1.437391215172878E-002 -1.999663763055607E-003  0.966400293432173       2.092739356815424E-002  0.969793006249965       0.991174063750074       0.990190301265623       0.987839698388397       0.985634280817601     
  0.988523500342679       0.989460895631876      -1.231467494708774E-002 -3.066015325481755E-003   1.00048559159188       0.984683194443837       0.968503951883323       0.998243975535461       0.997027319607989       2.610314200479869E-002   1.00839462074412        1.00662103093652        1.01016331897549        1.01186163473793      -1.311626934306498E-002 -1.570037370868557E-002
 -8.559681844950272E-003  1.953098536020840E-002  1.703236469388207E-002  1.429449708463430E-002 -1.017506146497865E-002  0.990891133442182        1.00929351865503       6.225220047367351E-003  0.980682892338419      -7.341004925466990E-003  0.992580813322568       0.993283854985153       0.994433394093397       1.184172037973485E-003  0.972642424041841       1.228922736637431E-002
  1.185835465249584E-002  0.981139391467874       0.971026901253647       0.959668987953296       0.963254032790622       0.960361867571506        1.00441839377373       0.964903675341203       0.968135210165061       0.974004086498057       0.972329835294938       0.975982811973735       0.976895767793731       0.975286198708086       0.973658575299405       0.957370227704637     
  0.954081191957692      -5.484390263952678E-003 -1.291451740674293E-002   1.01237121990023        1.01357882821255       0.982744582149888       0.980183331932936       6.616755179946226E-003  6.931614304169853E-004  5.391456216706054E-004  2.040248073048097E-004 -6.101645883600842E-003   1.01166817690603        1.00737023130424      -1.056544570020644E-002  2.865091098343545E-002
  2.581857761254047E-002 -1.506691320225206E-002  8.987310595641240E-003 -1.558560313653339E-002 -1.850233650637390E-002  0.992338196462781       0.990439714056434      -1.263875115238285E-002 -1.539202908668338E-002  2.707161740284105E-002   1.01125689671208       1.160895367933196E-002  0.986830293951357       0.987418832090025        1.00331092157630        1.00931864602824     
   1.01218638245908       0.988041958110910       0.962065431554651       0.959110333347025       0.955870965629891       0.952329357709040      -3.173947927866950E-003  0.978091526064270       0.985267656656511       0.984683304313203       0.982974995329373        1.00949389800231       0.977862367294311      -1.242935639108791E-002  0.984442787201912       0.967458139930850     
  0.969370964733353       0.970719180517409       0.971889504860337        1.01137732949037        1.01195755455140      -8.974884648882015E-003 -1.802146580708115E-002  0.963664386735057       0.974095287223044       0.971164089870259       6.041036704224323E-003   1.00746038173856      -4.156065571634618E-003 -7.861588795967607E-003   1.01218505611019        1.00447095336887     
   1.00233669729159        1.01315050928566       2.235596750297765E-002  2.976383580469423E-002  2.702962109260942E-002 -9.228521965337818E-003  2.282533510266467E-002  2.463114506383446E-002  2.374375124003397E-002  0.978357732023963       0.977075819815047       3.060098066273523E-003  3.018168933122667E-003  0.999346745985022       9.793684084514049E-003   1.01425274378683     
  0.961122349143680       0.987898199410774       0.993723865223784       0.995574699149770       0.958095892805332      -1.225417731205992E-002 -1.515894843562358E-002  0.964969873998312       0.980580982551528      -1.536694239550640E-002  0.981516437155113       0.984736963809375       0.991121383518095        1.00679533911468       0.973183157736543       0.969347009267463     
  0.966270397268134       0.963974005635164       0.967960808317352        1.01361320392008      -7.328612536531054E-003 -1.091453470000014E-002  1.138858149138260E-002  2.394916714513158E-002  1.992033348014581E-002  1.715215006447735E-002  3.139417137702581E-002  2.895780446735580E-002  2.751554994319035E-002   1.00529787898219       1.420225600731776E-002 -1.569804111190707E-003
 -1.542735292032213E-003   1.01444704529638        1.01675783375218      -1.551341266116689E-002  0.954988880313142       0.951873523781444       3.270447767791804E-002  3.041091730416637E-002  2.814499254180572E-002 -1.244555156642492E-002   1.01413810680473        1.01782883976262       0.975625217049472       0.970164162512938      -5.234674543083253E-003  8.716053229422795E-003
  6.976824875477699E-003 -1.848041877802106E-002   1.01435933281910        1.01545258406763       2.507538112630601E-002  2.165088816154184E-002  0.966276450624870       0.967795008435265       0.969289787966994       0.969476167639891       0.998054645833833        1.00581222851929        1.00854279642384        1.00433621685356      -1.080649991042124E-002 -1.326750848735897E-002
 -1.543988647855893E-002  0.948690089548045      -1.064575688102326E-002 -1.406904574117175E-002  0.975526256321186       0.956475838729973        1.00935530149343        1.01219336028766       0.981490012357194      -1.401589876322692E-002  0.991587861190601      -1.775143415991008E-002 -2.105753576795479E-002  3.563378127642880E-002  3.344156798791885E-002  3.129337009001114E-002
  2.931001266934511E-002  0.972571979244563       0.975378968342950        1.00125474037748        1.00000276669292       2.323489159817357E-002   1.00745797027749      -4.232108797649301E-005  5.826510439057254E-003  2.991694145473491E-003  0.966866569100809       0.969254576259323       0.978541328919260       2.484096991044611E-002  1.866940844558861E-002  1.600110753862874E-002
   1.00009059563049        1.00262753625267       0.999176341369032        1.00622008920135        1.01494204474624        1.01514665859742       1.305112310497589E-002   1.00388197970824       3.428172253479739E-002  3.140472007792715E-002  0.953424154860271       0.950167351802092        1.00571349350191       0.946598806718301       3.857824730111484E-002  3.632862637946727E-002
  3.419928823024335E-002   1.00928165311562       0.961221337000835       0.957736426662964       1.916646930470316E-002  0.962850397859659       0.985310250517264       0.977344900829877      -1.675519755516049E-002  0.965761778241689       2.026431550085946E-002  1.723962489493196E-002  0.964557340656881       0.966549343106410      -2.016813630673890E-004 -7.277222722096537E-003
 -1.426914908995933E-002  1.003995631506447E-002  0.964052217379927       0.961841436482204       0.968188502641659      -1.768257469110537E-002  8.410235321919902E-003  0.954940685847009       1.407165749810416E-002  2.247228355478639E-002  2.590660445943602E-002 -1.241909645378320E-002 -1.537024883278996E-002 -1.382917057241607E-002 -1.712886395692015E-002 -1.778841433893345E-002
  0.954955826646230       0.959129325303411      -2.177767626106988E-002  4.162583575519103E-002  3.920184987508563E-002  3.684318872590155E-002  3.504475598060985E-002  6.982927718227880E-003   1.01268025562955        1.01726220882910        1.01921039336392        1.01003717711457        1.01694029883875       0.971952223835473       0.975357906797108       0.960926014410915     
 -2.504469487632901E-003  3.741000227652126E-002  3.465029984615717E-002  3.163148683613583E-002  0.952087882306213       0.948317093656613       2.363080162947874E-002  0.996976670507033       4.427687647725271E-003  4.105184250961550E-003 -1.799305626751649E-002 -1.575997825418144E-002 -1.761903812665670E-002  0.962908872336247       0.959013245174657       0.978436789145516     
  5.710204074407678E-003  3.587071987636874E-003  1.335077036814154E-002  1.108007953205646E-002  0.943767898997398       0.948749451554441      -1.857550106338930E-002 -1.852856864273994E-002 -1.778225991730507E-002 -2.156661647797922E-002  0.965223911094165       4.483112084053185E-002  4.235951273323546E-002  3.940634275221813E-002  1.980470010170049E-002  0.954442848783784     
  0.957871146932963       0.960046549001113       0.950896215193519       0.956604534740896       0.953038173586470       0.949417125048507       7.726105100901883E-003 -1.225088211037306E-002  0.998002529204416       0.974690300448264       0.973479140300397      -2.032431138009352E-002 -2.031596892991023E-002  0.970949256733246       1.636677450843137E-002  1.500325686882025E-003
  0.981665613011059       0.984714251094575       1.685406771845935E-002  2.050636572679898E-002  1.731312076880983E-002  1.394972560502187E-002  4.064310941925878E-002  3.800494305380572E-002  0.978990293387046       0.973769375377769       1.018956109889787E-002  6.867102748126846E-003  0.945293114745782       0.941787513804214       1.030797287249505E-003  1.067298477190430E-002
   1.01453160495359       0.961124897659267       0.957000801783452      -1.925560003675723E-002 -2.148209720695947E-002  0.938182402052706       0.934525887501450       2.341290607727362E-002  0.947351842719469       3.515435718312688E-002  3.198119404541339E-002  2.721952346610440E-002  4.815922665585649E-002  4.575080511488864E-002  4.328583619056652E-002  4.120528964119487E-002
 -6.751481468324412E-004  0.987929435985047       0.991161014490088       0.955276530607601       3.842239349828489E-003 -1.899821219951565E-003   1.01448454218474       2.395314932293239E-002  4.392243677121364E-002  4.132507133110196E-002  3.881274666297672E-002  2.055506801718496E-002  6.886142493356272E-003  1.368320410693524E-002  0.943832736503437       0.940236573528575     
  0.942798309831217       0.987888856489820       0.994362901199281       0.994427299338079       0.945844530764311      -2.147129067261112E-003  0.958890527523589       0.951524597571409       0.947745255150906       0.988987205526871       0.992673499930165       0.938708369364668        1.01104076170991       0.991164546489041       0.934912490610293       0.957022127429200     
  0.955013013416789       0.952867822201311       0.972030218636144       0.945892565866918       0.957727538103793       1.031676526868858E-002  6.698611119444071E-003   1.01680309700569        1.01539287638441        1.01682875263257        1.01905769204303       9.191509277612104E-004 -1.317605887097392E-003  1.031601055209356E-002  4.728005944211217E-002  4.452862308659869E-002
  4.198740816336508E-002  4.051043939331472E-002  0.950674301975428       0.946562126836765       0.930910301648742       2.076990406119917E-002  1.743619996560039E-002  2.643540094370750E-002  0.989930976477418       0.978675166641963       0.982549298872151       0.986281942430834       0.975391197457580       0.975381767780609       5.159209765559587E-002  4.914537314012510E-002
  4.666964958202630E-002  4.428571161803569E-002  4.119086198288771E-002  0.953793362942798       0.956201792046785       1.393065994070861E-002  1.740986382023896E-002  0.961770114223183       0.993602131916127       0.964296595324305       0.960268057084671       0.966853122627316       0.940322016551812       0.998464591697344        1.00146085276443       0.994561723011747     
  0.942440695179080       0.938742067066991        1.00226340928383       0.949043274645748       1.405008628927911E-002   1.01796295324787       2.804927726837321E-002  3.266848855604485E-003  0.936476094571141       0.952985437942853        1.00068481426463        1.00344255267167        1.00656848725447       0.967797430249879       0.945166116096971       0.949808234722984     
  0.945241207295140       6.313330189686905E-003  5.079189213948063E-002  4.789381764525940E-002  4.470883459978485E-002 -9.411223510691825E-003 -1.249165253669554E-002 -1.589436509209078E-002 -5.716009395263728E-003 -8.076892515444505E-003 -3.791398609402068E-003  0.987748415012950       0.979824829976983       0.999804013566393       0.944548319483146       0.936916745935157     
  0.932901762190883       2.448450017823080E-002  2.839605953676724E-002  2.452099430864215E-002  0.997257367248624       0.998599204818877       0.991127331566148        1.01834983898353        1.02040951933601       0.990748146697895       0.996262962425092       0.997387764863361       0.994523093669018       0.984525651079151       0.963446203036361       1.047275609906800E-002
  6.626142392949175E-003  0.934687467342232       0.951075336369886       0.948741281646373       3.219015813054711E-002  3.109154722031701E-002  2.910439240373924E-002  0.942329149812309       0.947673141523572       0.944259756840782       5.515328593379389E-002  5.262987055538834E-002  5.002004928846932E-002  0.983624061797155       0.987176415428655       0.987676579667627     