 VARIABLES = "X" "Y" "RO" "U" "V" "P" "M"
 ZONE T="  0.000000000000000E+000 " N=        9944  E=       19548
 ZONETYPE=FETRIANGLE DATAPACKING=BLOCK
 VARLOCATION=([3-7]=CELLCENTERED)
  -19.9782054645671       -16.7460447536127       -13.5432470514743       -10.4462771124608       -7.39483127129757       -4.39431260318683       -1.43672854734527        1.47853524247441        4.40194279230921        7.38347804238703        10.4122197804982        13.5308676756442        16.7310607632789        20.0189460056259        20.0156650185539        20.0123451374732     
   20.0090067226427        20.0056742799471        20.0022854763303        19.9988742323503        19.9954939648514        19.9920871178897        19.9886881104951        19.9853470049941        19.9820070605281        19.9783478910574        16.7317203104092        13.4557822172063        10.1645634122701        6.87452312340184        3.53259687976399       0.170578499054329     
  -3.16443525887912       -6.48474521199279       -9.79114624567630       -13.0836966857758       -16.3754018560739       -20.0188035791356       -20.0155069002833       -20.0121812769038       -20.0088400757232       -20.0054989473046       -20.0021446450312       -19.9987763328347       -19.9953939522161       -19.9920253568386       -19.9886729196427       -19.9853365630757     
  -19.9819979716434       0.999326827598587       0.997807386978876       0.996292441298570       0.994787823002417       0.993238639910659       0.991628534889581       0.989952660576112       0.988215508993465       0.986416969545245       0.984554716300208       0.982614735091499       0.980605583341528       0.978511058248760       0.976343858787301       0.974100128106346     
  0.971772454114846       0.969358286920561       0.966856806972797       0.964265695703194       0.961585315293861       0.958810681906930       0.955933980152733       0.952944085417167       0.949831573807269       0.946625184013994       0.943303226626110       0.939833109198299       0.936257233324942       0.932563467571024       0.928730327355903       0.924722871041918     
  0.920571750741509       0.916271704689429       0.911808835235847       0.907174159591079       0.902361224119751       0.897363501682913       0.892168410645901       0.886763191790572       0.881140186549789       0.875291635790934       0.869218690067137       0.862914130422717       0.856370020623195       0.849576358997528       0.842524295909263       0.835205357799242     
  0.827613176527476       0.819739332727242       0.811575565418490       0.803113492893430       0.794344269205604       0.785260234294857       0.775852469887480       0.765996863238686       0.755782266029192       0.745197228070642       0.734231038728106       0.722876632287460       0.711121573809877       0.698953139277447       0.686363970958843       0.673342195457876     
  0.659873770924397       0.645951161226884       0.631560715534747       0.616685574356138       0.601314432406383       0.585426459160694       0.569008963592196       0.552046253731557       0.535127263978782       0.518169810358143       0.501141596902928       0.484042680992501       0.466872669532161       0.448981700250392       0.431686061067453       0.414984409156337     
  0.398875256506591       0.383342839175477       0.368302579479695       0.353736265959028       0.339639970354996       0.326022666980041       0.312869453160734       0.300181486815455       0.287959803475310       0.276186178236157       0.264835606560734       0.253860615857594       0.243248621162091       0.232987255947724       0.223069286702215       0.213486635648562     
  0.204227630678583       0.195281035830653       0.186642258971884       0.178295036367135       0.170229676509510       0.162429156890838       0.154886642640583       0.147595741206499       0.140550351304790       0.133744255732996       0.127170553592198       0.120823670815420       0.114698394255680       0.108789411324103       0.103092182123960       9.760232876561632E-002
  9.231566206493454E-002  8.722869557408769E-002  8.233769700151558E-002  7.763890544688588E-002  7.321042433539858E-002  6.894525061237262E-002  6.484504893417872E-002  6.090806982742614E-002  5.713443691853137E-002  5.350211872673794E-002  5.002275136939897E-002  4.669423410724243E-002  4.349884296317273E-002  4.040740341908879E-002  3.741680409255080E-002  3.450423714381272E-002
  3.167005381702471E-002  2.891932431248857E-002  2.625488827102686E-002  2.368071097926316E-002  2.120291366551509E-002  1.882913095368994E-002  1.667760681387360E-002  1.460695819623617E-002  1.263684437688109E-002  1.078612064723358E-002  9.079465850629083E-003  7.452546478850063E-003  5.869447232697997E-003  4.432408940585163E-003  3.132867605152503E-003  2.008715992757507E-003
  1.119593005339261E-003  5.322588550110511E-004  2.596314050738326E-004  2.243908004709028E-004  5.133849270982237E-004  1.160566060530338E-003  2.116839621073461E-003  3.292153545587585E-003  4.615368069558321E-003  6.032152823796081E-003  7.742064237404706E-003  9.538820900321149E-003  1.143830370333590E-002  1.335402506797071E-002  1.531608242039155E-002  1.737283841594901E-002
  1.957527255298021E-002  2.188956708268461E-002  2.432567141485045E-002  2.682372584345041E-002  2.939134383677983E-002  3.207276981094197E-002  3.490775518907145E-002  3.789374742972775E-002  4.102022511371459E-002  4.427513320871444E-002  4.764757712888249E-002  5.112564709579034E-002  5.470592866761004E-002  5.838828079369109E-002  6.216533365311463E-002  6.639879581324580E-002
  7.077776467830887E-002  7.529964797134470E-002  7.996129760504765E-002  8.469377645083073E-002  8.956651163714113E-002  9.460585895684337E-002  9.980971261443072E-002  0.105180163451946       0.110707442698558       0.116411038256371       0.122332047613110       0.128520307696465       0.134988826739885       0.141740759116124       0.148772569957090       0.156085448440946     
  0.163682460320658       0.171564587075727       0.179735749574398       0.188199392002418       0.196959925779302       0.206202800188631       0.215785992868170       0.225715177193474       0.235999349887666       0.246646706093504       0.257664297351216       0.269062393220734       0.280851655100415       0.293039489737208       0.305636598188075       0.318655175417701     
  0.332102574663544       0.345988563143623       0.360326396637522       0.375116192802988       0.390368419626336       0.406088969821371       0.422263154951323       0.438901096694260       0.455945246042996       0.473387171625875       0.490901164003166       0.508280901995014       0.525524831571182       0.542635516080115       0.559616848365961       0.576151933915616     
  0.592217637255953       0.607794711975696       0.622882455698540       0.637483286715652       0.651561759286796       0.665129524816507       0.678202064899963       0.690797438197773       0.702936046167781       0.714669178728860       0.726038585296525       0.737052370186086       0.747718863264613       0.758040301065332       0.768025095349016       0.777682051948863     
  0.787019948777170       0.795961190902038       0.804574564678490       0.812864868175477       0.820837958309755       0.828498447379099       0.835850633681046       0.842901707276119       0.849713962021028       0.856317154132173       0.862714345517917       0.868909289947942       0.874905823442497       0.880707903936135       0.886318792089936       0.891741570629577     
  0.896979660487109       0.902037384189341       0.906922433487668       0.911639328229975       0.916192547371607       0.920393555293317       0.924479215987513       0.928447657681787       0.932301758470609       0.936026636678652       0.939619303285786       0.943086100937451       0.946419309294640       0.949622535061425       0.952711073550127       0.955660923890197     
  0.958478721107358       0.961220687733235       0.963883787524802       0.966466193197539       0.968966660144949       0.971384614674200       0.973721230829521       0.975977550486542       0.978156879064839       0.980263109039188       0.982248192292276       0.984179114304152       0.986041242758150       0.987839310114145       0.989577268784436       0.991256408208779     
  0.992872288368331       0.994426172141437       0.995920562381163       0.997411210751285      -1.007990657589603E-003 -8.254335822194113E-004 -9.332104086960244E-004  0.995566865168437       0.997009902809042       0.995560482070477       0.996807747878896      -2.417580634384481E-003 -3.772641509262654E-004  0.995247519508698       0.996027401919104      -2.009156268342942E-003
  0.994175523000613      -2.324188019602297E-003  0.993705089008867       0.992051394531329      -5.506986112488126E-004  0.992454773073423       0.993438065341419      -2.319171389448563E-003 -3.895305685460349E-003  0.994557034859611       0.994720481874927       0.998444496658329      -1.415761554493286E-003  3.590702991440069E-004  0.990704599838608       0.988934560443516     
  0.987160650259014       0.991549824378259       0.997756222012672       0.993044446492789       0.990839630436450       2.594540583729090E-004 -1.943673571092975E-003 -3.973330930452622E-003  0.992439244727441       0.997009066800003        1.00009280567130       0.997721859096409        1.00077198698086      -3.318887488131651E-003  1.370547530094264E-003  0.996142324216230     
  0.996526191193152       0.999086581542153       0.989112209150873       0.989720165743407       0.987869211438958       0.985955793959952       0.990568346727234       0.992348162009929       1.380904128744828E-003 -6.100908495641228E-004  4.085927923033261E-003   1.00188163452787       0.990101796492939      -5.328024352147517E-003  2.624292297015092E-003  0.990557439707464     
  0.987232610281044       0.988622524823734       2.652165966499075E-003 -4.013425726452593E-003  0.991299937889374       0.999501415208789       0.998962366335390       4.086898859590099E-003  0.988726935778733      -2.571888188466509E-003 -3.747128749194590E-003   1.00279114868448        1.00085883856257       0.994450393825450       0.998587995333392        1.00066390971431     
  0.993344548342596       7.417920641022065E-003 -2.370499238134565E-003  0.999229636581929       0.998380212447846       5.720090521380480E-003  0.985271608125781       0.983290182901394       0.991506470453088       0.997625014390299       0.986525048247613      -5.783638131121405E-003  0.987930192956906       9.084340473561584E-003 -5.273621858619425E-004  6.469832086466595E-004
 -5.337274203268373E-003  0.983861203311575        1.00306974504247       0.986740711061872       0.984535135964054       0.997412587778027       0.995378817566442      -1.506928831393474E-003   1.00366032857123        1.00554141550756        1.00139340525240       0.984383368575904       0.982139508113007        1.00049904174144       0.993812638043176       0.985743471237376     
 -4.760506942835348E-003  5.705825253730131E-003  1.956278265373868E-003  7.466351355948786E-003 -7.102070049817704E-003 -1.555939270078421E-003 -1.337603952306767E-004  5.802663108708821E-004  2.091256565421401E-003  0.994332388619540        1.00223954842051       0.995233938646560       0.987868972217656       0.992154902760498       0.981482574587912       0.979324379199483     
  0.982312965045424       3.792185109901624E-003 -5.539164590901223E-003 -7.400056739061967E-003  0.977173984109713       0.989337808766314       5.707153382922542E-003  0.985588618783909       0.990542195256555       0.993294619137647        1.00000839220450       0.999238365126277       3.543189501812752E-003   1.00499804796143        1.00396761921716       0.996178977357677     
  0.998133264774975       6.243809083487742E-003  0.999627825748356        1.00193239766617       1.085524831901048E-002   1.00254969964362        1.00649223929919        1.00423846404180        1.00684030537688       0.989680371556234       0.992838826099160       0.988663131770961       1.552936375614330E-003  7.502144930123011E-003  0.989625274770942       0.985513572318035     
  0.982856365818907       8.869400272732425E-003 -5.976701576664279E-003 -3.745793142318789E-003 -2.560524578438696E-003 -3.826181354063932E-003  0.990962527353354       0.992079739005357       0.980192215213298       0.977996322887499       0.975614976265634       1.137642886383801E-002  0.991668931411289       0.995622792174939       0.994598431399806       0.996714851312644     
  5.326330036150378E-003  1.334853340663186E-002  0.987272106987913       0.986968070021105        1.00285321027532       0.988904543076339       9.411355258881452E-003  0.986943059530332      -4.001975874504330E-003 -7.922043193923950E-003  0.980987067667659       0.979750085976773       1.283681110095208E-002  0.981535125113914       0.977262806203287      -5.962231837337870E-003
  0.985029669861461      -7.471163186705246E-003  1.088802597538255E-002  0.994201816654310      -2.811958599921057E-003  3.605283063669696E-003  0.974983560512730       1.136368901722449E-002 -3.320352947331115E-004  1.195353782159020E-003  1.536517425794574E-002 -9.753032797313240E-004  7.272190148077202E-003  0.978376401420180      -6.307505832427578E-003 -9.005517934749562E-003
  9.323406585163660E-003   1.00519662616620        1.00809299540848       0.979085398215019       0.976631343124012       0.973515222014222       0.984174788507895       0.982029852165469       0.993326649567965      -1.358680869754282E-003  1.330040271062271E-002 -9.730597064576747E-003  0.976349221507489       0.973986183214906       1.494114705650985E-002  4.939199464953989E-003
  8.634925631953085E-003  1.140960938644745E-002  0.972631041345582       0.970248068444398      -8.124600551164585E-003 -1.027288587549834E-002  3.709503361548402E-004  1.306612472979401E-002  0.983371242110140       0.980547872852548       0.982441217853092       0.979816375086723       0.980532098671344       0.980085646904948        1.00852034756474        1.00524925683295     
 -5.729427620412269E-003  9.650683049837925E-004   1.00177702531153        1.00101783911357       0.984445678543478        1.00387629312176        1.00352412772097       0.971493440264364       1.713779540064856E-002  0.981489540904053       0.982881418094730       1.102425222470289E-002  0.998303887527347       0.989204417728176       0.968920010087708      -3.683431972302584E-003
 -5.146397091098633E-003  0.985204741808909       0.995655695071962       1.529762052663007E-002  0.979141406547307       2.962204343335808E-003  1.751015054197518E-002  1.533098725385579E-002  0.973145771004726        1.00749428832496       0.978249396807348        1.00097592357183       0.999906053818876       0.977987147124141       0.997191046760540       1.337034387842063E-002
 -4.138517682944669E-003 -8.142777865354642E-003 -2.454745082250644E-003 -9.928880144067054E-003 -9.622966150537258E-003  3.370787081813011E-003  0.975273491453778       0.975544216088337       0.972967984820982       1.143059842132996E-002   1.00914471866488       0.970449188529071       0.967980983342173       7.097270265180552E-003  0.971342042066062       0.965492004787088     
  0.963252664416961       8.721823682238301E-003 -7.879403345325775E-003 -1.078670855678880E-002 -1.928716869464175E-003  1.980223241387442E-002  1.759884749225146E-002  0.996069142501712        1.00270511856943      -1.176222918828455E-002  0.982573412369591       0.979395767445637      -5.164762761314457E-004 -7.009310008784533E-003  1.521328446377558E-002   1.00161849594255     
 -1.042208635650814E-002 -1.276417626600703E-002  0.977330755156024       0.976851703768640       9.383194115391433E-003  1.000158295791466E-002  0.987247471239657        1.01061684695729       0.990147681475768       1.562835345050687E-002  2.351987688374045E-003  0.969132688244472       0.966638564079236       0.964001975866447       0.960940569492125       1.760161341137572E-002
  1.927581635749968E-004  0.970264642076926       1.374438693700591E-002  1.945251813342808E-002 -1.213987052212138E-002  0.993046417411890       0.994449161688644       0.997189388105179       7.042129546477963E-003 -6.496580905327254E-003   1.00582534493285        1.00578967189463       0.967426526889086      -5.463555578781388E-003 -4.887318600697290E-003  4.573289591062958E-003
  0.970518624584723       1.259010749645426E-002  0.998831088687283        1.00052296326549       2.219834526491147E-002  2.002527596100547E-002  1.768149961413681E-002 -3.642157847705176E-003  2.187658241010858E-002  0.974702181748339       0.971884253186235      -1.454554075010878E-002  0.987622874558619      -1.034874036308520E-002   1.01025287882433       1.569281361963754E-002
  9.135331756704279E-003  2.003009529114088E-002   1.00442614531935       0.967940994687603       0.965360411236161       0.995824981440310       0.962393295561470       2.460709084583304E-002  6.036946794379412E-003  2.252538197184938E-002   1.00842138041241       6.927906844185289E-003  4.223796986741325E-003  3.911456764919536E-003  1.801023333875390E-002  3.186214423715375E-003
 -8.588539186650519E-003  0.990122541354202       0.985134368721603       0.983119002982282       0.985533575600623       0.987570735280723       0.994765391976535       1.510503289925593E-002 -1.494295405244059E-003  0.966027055068942       2.064313897479034E-002  0.969217462294594       0.990627671282590       0.989643211820698       0.987289808148091       0.985081333126234     
  0.987974051057515       0.988911907903730      -1.220194250841107E-002 -3.118838968772317E-003   1.00001209303473       0.984253068908841       0.968120153590640       0.997705376826240       0.996486511150067       2.697207289011773E-002   1.00789918871931        1.00612989536289        1.00966358183272        1.01135828962066      -1.281845862216855E-002 -1.542381598039124E-002
 -8.222231885718445E-003  2.032277845208640E-002  1.779901973995991E-002  1.503635933917677E-002 -9.825375458444070E-003  0.990445747383793        1.00876965033855       6.060124360238012E-003  0.980257300005639      -6.911468936052233E-003  0.992121292220863       0.992827831332517       0.993983947006630       1.718284847307930E-003  0.972070285324621       1.297217266773621E-002
  1.255329682102140E-002  0.980719624198301       0.970453978899333       0.959081178836197       0.962898306372933       0.960020183873080        1.00392614484639       0.964541036565205       0.967559185931714       0.973435079153258       0.971759382785258       0.975416288276141       0.976330981878668       0.974719490076135       0.973090010521474       0.957043397349545     
  0.953770879274991      -5.011565237426947E-003 -1.258437320209231E-002   1.01186009928813        1.01306526370903       0.982188178636824       0.979623245245784       6.441276822128639E-003  5.909310229287406E-004  1.097267569910500E-003  7.866344433064990E-004 -6.130222416961705E-003   1.01114796476517        1.00684351367649      -1.015716335794906E-002  2.955784220909383E-002
  2.668865547075643E-002 -1.492310176456742E-002  9.655988095694634E-003 -1.527266031428565E-002 -1.820586171139716E-002  0.991792585506882       0.989891388646671      -1.241889121903622E-002 -1.515645959848854E-002  2.674409288490079E-002   1.01076273105623       1.231525374519746E-002  0.986278217156990       0.986867225399438        1.00283338605097        1.00882877196290     
   1.01169772130826       0.987490842843474       0.961715925685286       0.958775169517037       0.955551554199590       0.952027505902736      -2.642043531286269E-003  0.977681750326238       0.984714009785682       0.984129171006512       0.982419111511159        1.00896840340947       0.977298892592832      -1.205969672974620E-002  0.983888134259085       0.966880430163817     
  0.968797335888846       0.970147580944610       0.971319574397623        1.01086011648942        1.01143530696860      -8.529468908358751E-003 -1.784859106798446E-002  0.963308787887389       0.973695373714161       0.970775907146670       6.685833958486209E-003   1.00697507375188      -4.216051193251506E-003 -7.857150410515591E-003   1.01166103320511        1.00398530878570     
   1.00186672851982        1.01265204402659       2.318247511437477E-002  2.941749522693426E-002  2.670538482082053E-002 -9.234051170978998E-003  2.252613287088753E-002  2.431831251547016E-002  2.344080785750742E-002  0.977951803378794       0.976511356014564       3.683988915285853E-003  2.876779178340772E-003  0.998881251456603       9.592441048676960E-003   1.01373600746251     
  0.960778769444741       0.987464770162623       0.993179203999279       0.995031250484166       0.957504692667532      -1.183089484135488E-002 -1.504525216168813E-002  0.964390270727798       0.980021613140499      -1.502623021662736E-002  0.981103211211546       0.984317535032376       0.990685039681830        1.00626667875431       0.972789586564742       0.968964192647398     
  0.965902665644291       0.963620388172686       0.967586878945686        1.01310710673711      -7.366753401574689E-003 -1.088861718928741E-002  1.210559338740161E-002  2.479162414711454E-002  2.072259781132930E-002  1.792998866789197E-002  3.233508557379870E-002  2.987322311815666E-002  2.841699034114976E-002   1.00482384090858       1.495562561354195E-002 -1.648625541091451E-003
 -1.637431752590405E-003   1.01394511709065        1.01625430312761      -1.514302693418524E-002  0.954394683052912       0.951276497015380       3.234072078428650E-002  3.006332716415610E-002  2.781391035838227E-002 -1.243022954035642E-002   1.01361863979389        1.01731315923542       0.975222685186474       0.969784130340458      -5.299983177085533E-003  9.398116314151536E-003
  6.794364800024101E-003 -1.822963975861898E-002   1.01386681178284        1.01496546510082       2.476261273834708E-002  2.136286123328444E-002  0.965699703087375       0.967220728163511       0.968717313966704       0.968904419404058       0.997598103198440        1.00533191130959        1.00806382894155        1.00387000087180      -1.034561994560293E-002 -1.287197145775837E-002
 -1.503781267436203E-002  0.948090126625254      -1.065941615282953E-002 -1.406411704366980E-002  0.975127302235319       0.955884473710490        1.00882821159006        1.01166797993795       0.980931466867273      -1.397068140496740E-002  0.991040118873010      -1.762207807408683E-002 -2.090250324278450E-002  3.525510471864676E-002  3.307790874901467E-002  3.094366696200420E-002
  2.897308789626055E-002  0.972185700314716       0.974985681666974        1.00079278138197       0.999549865260650       2.407586900993745E-002   1.00698876565420       5.599350325555427E-004  6.488096702779800E-003  3.635497820905375E-003  0.966502816348547       0.968883722700123       0.978140594364830       2.453271780240987E-002  1.840155428546018E-002  1.575122614041505E-002
  0.999553109016727        1.00209251927487       0.998636607804389        1.00575685388245        1.01442131801923        1.01462401328899       1.282267648364860E-002   1.00334948568019       3.525839701146905E-002  3.234918982559874E-002  0.952830113656758       0.949570358381230        1.00518114483979       0.945998605590204       3.818589986006438E-002  3.595155144055207E-002
  3.383572663571638E-002   1.00881778722475       0.960636946325317       0.957147756048873       1.889512524627328E-002  0.962269617970625       0.984755923013495       0.976780888563108      -1.665713030473411E-002  0.965406505305159       2.107996200621418E-002  1.803077418704799E-002  0.963979659984049       0.965974394357363       4.194359874274794E-004 -6.790239711636482E-003
 -1.382686653489928E-002  9.832714956087802E-003  0.963701877864230       0.961501982270017       0.967827861132290      -1.746930604603969E-002  9.102985365998396E-003  0.954349015677989       1.483879758499763E-002  2.217972539058203E-002  2.559157585181940E-002 -1.236215730589099E-002 -1.529721803175717E-002 -1.374116135885116E-002 -1.706669838768966E-002 -1.744297201695971E-002
  0.954365920779059       0.958544206542567      -2.150526562580827E-002  4.121964354273575E-002  3.881234792474762E-002  3.646721427239633E-002  3.468087598931819E-002  6.794390375129955E-003   1.01219880042626        1.01677176011371        1.01872453770179        1.00955171809206        1.01646052084467       0.971574917345053       0.974971894453242       0.960344330169098     
 -1.936767990583119E-003  3.842355012598760E-002  3.563252505114993E-002  3.258003195812668E-002  0.951494110343723       0.947720322651709       2.448966762421215E-002  0.996528415059353       4.263769962458502E-003  3.938207473686220E-003 -1.791036520852529E-002 -1.572626654589115E-002 -1.759615921358000E-002  0.962330156312735       0.958430596519804       0.977873802862552     
  6.384426914413117E-003  4.256144336941308E-003  1.311819109664666E-002  1.180856057342480E-002  0.943167088162020       0.948467743050295      -1.820419428550334E-002 -1.810995162542573E-002 -1.745576299064440E-002 -2.124279041139098E-002  0.964647964099279       4.441115941582215E-002  4.195504102374475E-002  3.901953245150245E-002  1.952955331714048E-002  0.954131563486877     
  0.957543212348265       0.959710639512142       0.950603306444619       0.956284476370837       0.952735667401244       0.949132922036887       8.428811028987784E-003 -1.226822556393435E-002  0.997561778601135       0.974122999814212       0.972911380972036      -2.024558002310668E-002 -2.020631482494261E-002  0.970583729499629       1.611411570748128E-002  1.355937120840707E-003
  0.981259322385685       0.984303024135566       1.659760055768189E-002  2.133719840686860E-002  1.811946200285222E-002  1.473309670056000E-002  4.169266709905334E-002  3.902572869816374E-002  0.978593338866067       0.973399673946496       9.976630232672749E-003  6.672798105833709E-003  0.945029145192511       0.941541386067249       8.805063393503580E-004  1.141607403404228E-002
   1.01400660147701       0.960545099196059       0.956417207408623      -1.920490369541606E-002 -2.144366582488528E-002  0.937955080497168       0.934317981822489       2.311519912150009E-002  0.947077449878372       3.614293230443336E-002  3.293385457496267E-002  2.689836896487923E-002  4.772668283379580E-002  4.533313936304763E-002  4.288236854146801E-002  4.081352092142180E-002
 -3.847586500088890E-005  0.987505520210262       0.990733777039230       0.954965106918760       3.671051456751665E-003 -2.017770016243229E-003   1.01401015218832       2.482423140637799E-002  4.500562336065504E-002  4.238116651176039E-002  3.984368723600975E-002  2.027566708669416E-002  7.604178672258796E-003  1.344573759009362E-002  0.943575554686840       0.939997129949257     
  0.942194324767415       0.987473611105125       0.993923844720501       0.993997831895222       0.945242271091150      -2.280628149168917E-003  0.958561508477966       0.951230982132338       0.947469864172549       0.988436350242138       0.992126045549894       0.938101290098158        1.01056854861716       0.990745954699157       0.934302864941620       0.956436333408786     
  0.954426469244978       0.952280595425156       0.971461721480539       0.945625664117203       0.957408042840423       1.009780156103117E-002  6.497538377058088E-003   1.01630638875737        1.01488388298823        1.01631682308819        1.01855126588459       7.619009254989121E-004 -1.468210816333118E-003  1.107656028872275E-002  4.839649185327777E-002  4.561411716228615E-002
  4.304964641353771E-002  4.155772552125470E-002  0.950081038823934       0.945965984365204       0.930298011216273       2.161533153897712E-002  1.825905144907464E-002  2.732967708404867E-002  0.989380290284437       0.978113301042230       0.981991814369468       0.985728054050461       0.974825697359386       0.974817016165680       5.114758537197687E-002  4.871590949572509E-002
  4.625395882107339E-002  4.388240800711138E-002  4.080603245395738E-002  0.953491195929441       0.955892172515629       1.473186507223780E-002  1.714886847556808E-002  0.961428160085264       0.993054621321005       0.963952092198483       0.959941310229438       0.966504054868219       0.939717394083413       0.997923159435870        1.00092177553015       0.994140155341714     
  0.942189188445396       0.938509266273390        1.00181512636705       0.948450508909700       1.380720471235761E-002   1.01749146206142       2.896276007734942E-002  3.091076318088871E-003  0.936255956049993       0.952395687254688        1.00024877318320        1.00298364677652        1.00611276465680       0.967224551471902       0.944570852418734       0.949522954784019     
  0.944976745713705       7.050028518786930E-003  5.194304913638856E-002  4.901258845706065E-002  4.579589024910177E-002 -8.916130702085230E-003 -1.201889948480740E-002 -1.542773586896776E-002 -5.182794777443497E-003 -7.542600828555633E-003 -3.213184584296793E-003  0.987341926845377       0.979264686476657       0.999262555129798       0.944287360097294       0.936310175169667     
  0.932292642397876       2.536825388231920E-002  2.932034356280557E-002  2.421857473816316E-002  0.996827100997556       0.998175123811547       0.990717340475839        1.01783136920347        1.01991892478892       0.990197533591990       0.995718904551706       0.996843273188940       0.993975374795330       0.984122549190863       0.962869224255733       1.024746381099609E-002
  6.418103938126445E-003  0.934475221969825       0.950485273325194       0.948150717800377       3.183870259447698E-002  3.074817661555681E-002  2.877586207688961E-002  0.941729895589332       0.947080639893690       0.943665396646409       5.469712796132351E-002  5.218870179494548E-002  4.959372098292066E-002  0.983067602643850       0.986622848673514       0.987123234625992     