 VARIABLES = "X" "Y" "RO" "U" "V" "P" "M"
 ZONE T="  0.000000000000000E+000 " N=        9944  E=       19548
 ZONETYPE=FETRIANGLE DATAPACKING=BLOCK
 VARLOCATION=([3-7]=CELLCENTERED)
  -19.9782054645671       -16.7460447536127       -13.5432470514743       -10.4462771124608       -7.39483127129757       -4.39431260318683       -1.43672854734527        1.47853524247441        4.40194279230921        7.38347804238703        10.4122197804982        13.5308676756442        16.7310607632789        20.0189460056259        20.0156650185539        20.0123451374732     
   20.0090067226427        20.0056742799471        20.0022854763303        19.9988742323503        19.9954939648514        19.9920871178897        19.9886881104951        19.9853470049941        19.9820070605281        19.9783478910574        16.7317203104092        13.4557822172063        10.1645634122701        6.87452312340184        3.53259687976399       0.170578499054329     
  -3.16443525887912       -6.48474521199279       -9.79114624567630       -13.0836966857758       -16.3754018560739       -20.0188035791356       -20.0155069002833       -20.0121812769038       -20.0088400757232       -20.0054989473046       -20.0021446450312       -19.9987763328347       -19.9953939522161       -19.9920253568386       -19.9886729196427       -19.9853365630757     
  -19.9819979716434       0.999849469343794       0.998333746647833       0.996822390801485       0.995321224064376       0.993775478470205       0.992168823707487       0.990496411196861       0.988762712395861       0.986967606624961       0.985108762381164       0.983172179893996       0.981166390479950       0.979075207369180       0.976911298814005       0.974670805532023     
  0.972346317787689       0.969935281067583       0.967436869823870       0.964848762398552       0.962171315868804       0.959399548138167       0.956525648379549       0.953538499027151       0.950428680712792       0.947224905771822       0.943905502324925       0.940437899644152       0.936864466251270       0.933173078453213       0.929342262428681       0.925337090728932     
  0.921188189604179       0.916890291449871       0.912429493848919       0.907796802862858       0.902985748755261       0.897989784407171       0.892796305879200       0.887392526480268       0.881770753852457       0.875923190879979       0.869850945525729       0.863546755334927       0.857002638389741       0.850208545738325       0.843155579769937       0.835835219614599     
  0.828241052388761       0.820364617082008       0.812197615772203       0.803731635755441       0.794957807100612       0.785868454894795       0.776454655027035       0.766592217017738       0.756370068604421       0.745776787369244       0.734801705492884       0.723437818729633       0.711672765653313       0.699493912504390       0.686894014024932       0.673861323227629     
  0.660381940636475       0.646448494956484       0.632047511238008       0.617162318486433       0.601781816404321       0.585885383450758       0.569460548679009       0.552491839487041       0.535568528213655       0.518608439031477       0.501579288486027       0.484481128650549       0.467313534231172       0.449426766151167       0.432136714288394       0.415441762642309     
  0.399340163851752       0.383815920872976       0.368784287546051       0.354226875406175       0.340139589856171       0.326531248368113       0.313386825039410       0.300707361773581       0.288493795143655       0.276727830119818       0.265384410239190       0.254416035429556       0.243810079756134       0.233554143839799       0.223640966048437       0.214062447929455     
  0.204806904086350       0.195863089619145       0.187226405806250       0.178880588791579       0.170815947374421       0.163015461116857       0.155472297315879       0.148180067477710       0.141132676064581       0.134323912948264       0.127746884939986       0.121396026984846       0.115266135990824       0.109351910037563       0.103648821195646       9.815250445975991E-002
  9.285878447540880E-002  8.776419042538081E-002  8.286500630843252E-002  7.815748834557282E-002  7.371993390226132E-002  6.944516633837940E-002  6.533487263260815E-002  6.138732051754978E-002  5.760265822982574E-002  5.395880946955704E-002  5.046746605413484E-002  4.712654584309889E-002  4.391827958577450E-002  4.081337648479518E-002  3.780869669076653E-002  3.488129268763589E-002
  3.203146559569897E-002  2.926425547208806E-002  2.658245493316937E-002  2.398998287452708E-002  2.149292468173739E-002  1.909889031669774E-002  1.692719189469846E-002  1.483515254483212E-002  1.284248325516073E-002  1.096812668863624E-002  9.237003244516283E-003  7.583627251065427E-003  5.970777998262262E-003  4.501788489282587E-003  3.167005764898212E-003  2.003844248336285E-003
  1.072127150919444E-003  4.407012309593824E-004  1.272023487941136E-004  5.017688540184806E-005  2.840161568201199E-004  8.757769017464200E-004  1.778206336936464E-003  2.903202799356462E-003  4.179856824511693E-003  5.553697230933722E-003  7.217931921573360E-003  8.971718740102949E-003  1.082984670963314E-002  1.270709687797243E-002  1.463242377164073E-002  1.665304373032822E-002
  1.881901495606791E-002  2.109709067274186E-002  2.349704708627423E-002  2.595984987508004E-002  2.849290436759905E-002  3.113982515859637E-002  3.393989585626511E-002  3.689066575092338E-002  3.998179269242684E-002  4.320139390472201E-002  4.653871279285710E-002  4.998197020909075E-002  5.352778572158601E-002  5.717602026861667E-002  6.091937165449832E-002  6.511649874176624E-002
  6.945936482625720E-002  7.394543255219453E-002  7.857160974471185E-002  8.326948323484099E-002  8.810797418999682E-002  9.311329700286879E-002  9.828341328548683E-002  0.103620452586930       0.109114755503890       0.114785745325135       0.120674357888715       0.126830262497580       0.133266525323379       0.139986414770295       0.146986540473457       0.154268211437096     
  0.161834605558818       0.169686825771973       0.177828904174723       0.186264400593143       0.194997841871351       0.204214299986685       0.213772370370623       0.223677875523012       0.233939960620004       0.244566980386497       0.255566157181844       0.266947936117042       0.278723166428344       0.290899459225366       0.303487729471168       0.316500401064536     
  0.329945074468174       0.343831778452186       0.358174048980189       0.372972296083244       0.388237298055477       0.403975271013649       0.420171831852837       0.436837440998448       0.453914760709247       0.471395620159980       0.488953709233840       0.506382075843293       0.523678953261900       0.540846695156913       0.557888980847934       0.574487425944234     
  0.590618334640243       0.606261911970851       0.621416995462792       0.636085580338286       0.650231639845557       0.663866488191217       0.677005327019415       0.689665986869879       0.701868691039605       0.713664753924953       0.725095938167144       0.736170208118262       0.746895776934535       0.757274751381357       0.767315467457366       0.777026676483213     
  0.786417119475751       0.795408694918611       0.804070522863504       0.812407389435826       0.820425158252780       0.828128452419391       0.835521588758809       0.842611799683735       0.849461731522818       0.856101313970624       0.862533637473875       0.868762490570183       0.874791745887679       0.880625399075401       0.886266744315211       0.891718895775276     
  0.896985305941518       0.902070331576638       0.906981714323651       0.911724004149346       0.916301707305517       0.920525277107041       0.924632850136646       0.928622541087032       0.932497238494886       0.936241975269596       0.939853740264701       0.943338903415796       0.946689697400425       0.949909742732107       0.953014410149149       0.955979570323428     
  0.958811892143549       0.961567885680880       0.964244495136701       0.966839881404907       0.969352792608314       0.971782652750791       0.974130643639787       0.976397815494229       0.978587493944504       0.980703594945762       0.982697855683915       0.984637581188842       0.986508078295929       0.988314108395728       0.990059648963629       0.991746002754442     
  0.993368719226017       0.994929075911403       0.996429595376073       0.997926261919889      -1.164005924609852E-003 -9.417634263144228E-004 -1.133045311665107E-003  0.996099092806763       0.997539501862667       0.996093650214801       0.997315210371137      -2.595814096882402E-003 -4.531874122301899E-004  0.995749863425677       0.996528481947232      -2.111626660585661E-003
  0.994710626149912      -2.465119160595529E-003  0.994202268825858       0.992541988259987      -8.035872690801512E-004  0.992993571640192       0.993975581801387      -2.539942435540847E-003 -4.059476933601090E-003  0.995054607528497       0.995213638106058       0.998956084539265      -1.478443456287534E-003  3.244604245009342E-004  0.991246836844942       0.989480129710095     
  0.987709526157284       0.992090733029323       0.998261659713712       0.993536322904522       0.991322542751015      -5.146518950590505E-005 -2.228480409849012E-003 -4.169274738988343E-003  0.992978991418734       0.997507801711324        1.00060619418400       0.998251072311452        1.00129042542880      -3.408424731269098E-003  1.376117895562780E-003  0.996632175767384     
  0.997058873250746       0.999611517972240       0.989590806187670       0.990264164826787       0.988416286354861       0.986506049587807       0.991053393903319       0.992831465683522       1.020691179682905E-003 -9.457474353142838E-004  3.633526934717264E-003   1.00239363688206       0.990576024140226      -5.508940825389448E-003  2.667700775911724E-003  0.991100175480637     
  0.987702561418272       0.989095173072811       2.245189862092779E-003 -4.253031492393029E-003  0.991841693038136        1.00002792197542       0.999465375410814       4.165723087602457E-003  0.989272249743441      -2.622153841761188E-003 -3.875479491515737E-003   1.00330614134248        1.00136551408008       0.994986755596700       0.999117161301641        1.00118979277133     
  0.993883143893581       7.558860952907056E-003 -2.691799977283804E-003  0.999737826591232       0.998875597706622       5.832142004502884E-003  0.985732980198773       0.983742826945552       0.991981056648547       0.998111774461159       0.986989290980682      -5.994446076147888E-003  0.988396614453665       9.247662552157709E-003 -5.501488432225628E-004  6.630032122481095E-004
 -5.452865548316994E-003  0.984415301911300        1.00357658452398       0.987289181519008       0.985087454154038       0.997945236447302       0.995914351522421      -1.518546794073408E-003   1.00417111868575        1.00604815304626        1.00191520495085       0.984839040987441       0.982586232774809        1.00099862259539       0.994295079119706       0.986202065902281     
 -4.837042786843126E-003  5.830819423909778E-003  1.530798436909250E-003  7.615385476798735E-003 -7.204207406450124E-003 -1.909230148383179E-003 -1.077148346443914E-004  2.007799785950144E-004  2.144654552538941E-003  0.994869930769953        1.00274184011932       0.995714660111834       0.988415415181007       0.992695525019706       0.982041176711466       0.979886283303253     
  0.982869580915079       3.881959990736790E-003 -5.692987753540851E-003 -7.583753395811819E-003  0.977739263355071       0.989805222527247       5.209900700978502E-003  0.986140044353895       0.991009597447557       0.993834331460071        1.00050002075875       0.999721713397415       3.071931790638481E-003   1.00551047131675        1.00448517548580       0.996714180577709     
  0.998666243697959       6.386491480556895E-003   1.00015676664318        1.00245767025150       1.104265426543508E-002   1.00304543354860        1.00700669028461        1.00473969354548        1.00733973015051       0.990224437836687       0.993312805373261       0.989126071136637       1.616249760483776E-003  6.960121680757439E-003  0.990169296872499       0.986063960272441     
  0.983411561534176       9.038023872536036E-003 -6.232287706716431E-003 -4.074294403727284E-003 -2.561664273005271E-003 -3.864371340518206E-003  0.991505409548516       0.992621681704690       0.980751831106924       0.978559076758344       0.976181369552251       1.075166722328639E-002  0.992135319499799       0.996159459100661       0.995137213401587       0.997193041037085     
  4.809572114251997E-003  1.268843551312006E-002  0.987733345328685       0.987424863535824        1.00337554654908       0.989449990279042       8.826381704260677E-003  0.987491165898334      -4.293266510040247E-003 -8.150561451491973E-003  0.981545132154045       0.980186275443330       1.304830755500061E-002  0.981980920631493       0.977686995117712      -6.260459696096439E-003
  0.985482234656548      -7.612817148113800E-003  1.108277862476600E-002  0.994674177559571      -3.183839715347355E-003  3.706515089421162E-003  0.975397560645314       1.072291644218874E-002 -7.304792420103045E-004  7.506105896728597E-004  1.467112059296719E-002 -9.400608507660908E-004  6.710761274355977E-003  0.978803134097333      -6.370554878935295E-003 -9.092215835251747E-003
  8.719497791717767E-003   1.00571623748211        1.00860911555281       0.979645579756299       0.977194822841361       0.974084184141811       0.984727344734669       0.982585626190254       0.993867649141386      -1.776661327697918E-003  1.262994870495024E-002 -9.900138927392272E-003  0.976767834503922       0.974394026580557       1.517476546948292E-002  4.402449816711559E-003
  8.811247745374243E-003  1.075646921170836E-002  0.973033875990754       0.970639436814630      -8.394173006759539E-003 -1.051673527673040E-002 -9.312658772361355E-005  1.328447368527949E-002  0.983820335435244       0.980983202391179       0.982881512735906       0.980244440033481       0.981090054891863       0.980643729896764        1.00902387882671        1.00574398250933     
 -6.070949400365816E-003  1.037824669435765E-003   1.00226472688518        1.00149747216965       0.984889454084397        1.00439903273391        1.00404891051271       0.971889866956833       1.739182549793002E-002  0.981921494649331       0.983316082753299       1.122731778831031E-002  0.998779011088106       0.989665346399393       0.969305310607451      -3.674803466000352E-003
 -5.172889138919177E-003  0.985755319267427       0.996125605877024       1.553641859839439E-002  0.979564659678045       2.471302181409603E-003  1.678030732119903E-002  1.462665203906419E-002  0.973716461482369        1.00800365587654       0.978809914426769        1.00150429367079        1.00043771627622       0.978410228340009       0.997726536556161       1.359546964176221E-002
 -4.530123547604117E-003 -8.451326198272333E-003 -2.891387384476258E-003 -1.013383940224310E-002 -9.752590454012413E-003  3.484073009026107E-003  0.975841467991451       0.975956964298294       0.973369302522787       1.164263851792476E-002   1.00965604676848       0.971023718374692       0.968558470381613       6.515823841177737E-003  0.971914757856647       0.966072449197346     
  0.963835462787691       8.906806085085140E-003 -7.928944262606175E-003 -1.085714891637415E-002 -1.885086073307789E-003  1.903581482140507E-002  1.685799662916746E-002  0.996606814072919        1.00323304396626      -1.195125308058056E-002  0.983127712104737       0.979954461968125      -9.995555327867054E-004 -7.375881597258581E-003  1.449741786820045E-002   1.00214935700227     
 -1.070516143420145E-002 -1.302312146353220E-002  0.977748831144326       0.977262959987329       8.759240434160365E-003  9.352644172286165E-003  0.987698523092827        1.01112938337419       0.990604687524359       1.587083998206436E-002  1.841239597678141E-003  0.969707729218837       0.967216323037475       0.964582638324347       0.961525101950235       1.785967743658526E-002
  2.763628085309687E-004  0.970654193766332       1.397477795582522E-002  1.972642100419593E-002 -1.229887385619839E-002  0.993510629603020       0.994911166618916       0.997656499258922       6.440766482794028E-003 -6.511985741031159E-003   1.00634674712998        1.00631366994532       0.967803118409639      -5.873552070092234E-003 -4.869076763039010E-003  4.016311254442175E-003
  0.971091400812732       1.281344320140141E-002  0.999365362931058        1.00105631910638       2.139607225264295E-002  1.924799731916747E-002  1.692941900096489E-002 -4.096276505506522E-003  2.216992767438555E-002  0.975108263504442       0.972278465099860      -1.473693504148017E-002  0.988068353146743      -1.066672999450137E-002   1.01075942527313       1.593799851520879E-002
  9.328539804199580E-003  2.030804289757208E-002   1.00495346115385       0.968516283664165       0.965938017793701       0.996283968970228       0.962974319137649       2.377233860389934E-002  6.189473834723146E-003  2.171329293827019E-002   1.00894083501664       6.305918367212113E-003  3.645601138343093E-003  3.311247389912535E-003  1.827211918193592E-002  3.310995122609780E-003
 -8.975773879791885E-003  0.990572968104957       0.985574687342718       0.983551132668763       0.985971515511493       0.988011021151955       0.995305303475732       1.437767816386995E-002 -1.997156175654394E-003  0.966399047931186       2.092509349233035E-002  0.969790571664307       0.991171879856647       0.990188119013935       0.987837495452711       0.985632046588139     
  0.988521293447939       0.989458685208826      -1.231445333620070E-002 -3.066813515635932E-003   1.00048384999409       0.984681670659393       0.968502658656021       0.998241839042514       0.997025160210670       2.610766481710874E-002   1.00839276208095        1.00661919655250        1.01016143473257        1.01185972757492      -1.311495215639641E-002 -1.569918545683262E-002
 -8.558126904815640E-003  1.953508529774411E-002  1.703632375704012E-002  1.429831657108270E-002 -1.017344125120310E-002  0.990889533331366        1.00929148013484       6.223708619082528E-003  0.980681394601550      -7.338931300520642E-003  0.992579146332955       0.993282203321632       0.994431771224450       1.186847106626645E-003  0.972640024603030       1.229273658217234E-002
  1.186192386869540E-002  0.981137918930020       0.971024484470554       0.959666417557788       0.963252867260636       0.960360765980001        1.00441655682814       0.964902476884526       0.968132762376920       0.974001708503175       0.972327434131020       0.975980468799357       0.976893430798047       0.975283835074824       0.973656184477737       0.957369193573087     
  0.954080232699551      -5.482072733434093E-003 -1.291301521036938E-002   1.01236926599609        1.01357685604310       0.982742314824871       0.980181027777976       6.615162797915530E-003  6.920480552551439E-004  5.419479109503567E-004  2.069570756743403E-004 -6.102298677128051E-003   1.01166616061718        1.00736817447418      -1.056349885161001E-002  2.865563710655318E-002
  2.582310201783621E-002 -1.506651065546575E-002  8.990730325873679E-003 -1.558420540380999E-002 -1.850103965471268E-002  0.992336010960724       0.990437500767745      -1.263788500853078E-002 -1.539107911492082E-002  2.706902478346867E-002   1.01125504038225       1.161257930717232E-002  0.986828059523633       0.987416595480651        1.00330915735880        1.00931681437011     
   1.01218455347825       0.988039714993592       0.962064293311300       0.959109260602012       0.955869964629892       0.952328436533926      -3.171300141771315E-003  0.978090102519611       0.985265405968248       0.984681052980077       0.982972725860603        1.00949184466547       0.977860035565486      -1.242762998063342E-002  0.984440519958507       0.967455682688616     
  0.969368531283580       0.970716759159178       0.971887093337612        1.01137533651839        1.01195552113650      -8.972727794616950E-003 -1.802089618265191E-002  0.963663219802636       0.974093912508638       0.971162770173735       6.044319488542333E-003   1.00745857506473      -4.156918845394495E-003 -7.862032868325097E-003   1.01218300624467        1.00446914857297     
   1.00233497034690        1.01314862732008       2.236025574492491E-002  2.976110462502197E-002  2.702703979632198E-002 -9.229038372467135E-003  2.282293826105929E-002  2.462865911387816E-002  2.374132007790833E-002  0.978356324703107       0.977073469166322       3.063260192175965E-003  3.016798494740293E-003  0.999345043350224       9.791921435876635E-003   1.01425074766466     
  0.961121237180852       0.987896657056889       0.993721678279246       0.995572509526263       0.958093292473144      -1.225215023100805E-002 -1.515873067128502E-002  0.964967389737228       0.980578674930277      -1.536538628639489E-002  0.981514993444499       0.984735488549587       0.991119824622315        1.00679326627554       0.973181811420854       0.969345716139072     
  0.966269174167417       0.963972846436472       0.967959555026505        1.01361127817105      -7.329335382522407E-003 -1.091485379926023E-002  1.139226063934987E-002  2.395354500563989E-002  1.992448563795801E-002  1.715616497093785E-002  3.139907874854418E-002  2.896257256468830E-002  2.752023641716821E-002   1.00529612972768       1.420613329062415E-002 -1.570770215255376E-003
 -1.543813079459352E-003   1.01444514243469        1.01675591804541      -1.551168843867154E-002  0.954986239625502       0.951870843852816       3.270161635272842E-002  3.040816391070549E-002  2.814234799319212E-002 -1.244594561277333E-002   1.01413609043962        1.01782684057440       0.975623828663112       0.970162879459882      -5.235570641876453E-003  8.719541001138994E-003
  6.975176814574475E-003 -1.847938776423935E-002   1.01435748074933        1.01545075850575       2.507288823741371E-002  2.164855149129444E-002  0.966273983921460       0.967792558641747       0.969287351446125       0.969473728718973       0.998052986365576        1.00581044825045        1.00854102005125        1.00433450587046      -1.080426157949662E-002 -1.326563844066634E-002
 -1.543798336514515E-002  0.948687367871107      -1.064633432448291E-002 -1.406951353028525E-002  0.975524883494455       0.956473223215725        1.00935323209578        1.01219129653763       0.981487698556393      -1.401610609990094E-002  0.991585641732128      -1.775112705550029E-002 -2.105708394533391E-002  3.563080727976786E-002  3.343869515782068E-002  3.129059008435015E-002
  2.930731638192668E-002  0.972570665732035       0.975377620450916        1.00125305242377        1.00000112266579       2.323925292614296E-002   1.00745624241795      -3.928406649182398E-005  5.829880988482547E-003  2.994962311210392E-003  0.966865361750879       0.969253334800071       0.978539944126592       2.483848963995220E-002  1.866721358546371E-002  1.599902682031020E-002
   1.00008845998205        1.00262541824378       0.999174181403695        1.00621839095363        1.01494001546337        1.01514461109021       1.304917678106920E-002   1.00387988277809       3.428682013518904E-002  3.140964216079247E-002  0.953421503913455       0.950164660311480        1.00571138985396       0.946596070671821       3.857516881403380E-002  3.632565252929328E-002
  3.419640616874012E-002   1.00927994935700       0.961218795575813       0.957733834108189       1.916423850908162E-002  0.962847885459237       0.985307970725406       0.977342539965327      -1.675508033448003E-002  0.965760609428805       2.026853491848829E-002  1.724370709848600E-002  0.964554852472204       0.966546877097401      -1.985444493520297E-004 -7.274832900883015E-003
 -1.426701965467954E-002  1.003814214590334E-002  0.964051072207558       0.961840341276879       0.968187307741861      -1.768176237708476E-002  8.413777229353010E-003  0.954938057664652       1.407560495856450E-002  2.246990323478891E-002  2.590406443440523E-002 -1.241922348986642E-002 -1.537028466618821E-002 -1.382910790997066E-002 -1.712897304044468E-002 -1.778683515931075E-002
  0.954953206464403       0.959126762123107      -2.177652973284094E-002  4.162264996715976E-002  3.919878079869521E-002  3.684021469074009E-002  3.504186091871134E-002  6.981229575074715E-003   1.01267846218978        1.01726036380361        1.01920856965867        1.01003536688559        1.01693850882379       0.971950950927083       0.975356591096515       0.960923478777828     
 -2.501625316316564E-003  3.741529559623370E-002  3.465542258848117E-002  3.163642543841759E-002  0.952085223138125       0.948314390260322       2.363525376562602E-002  0.996975050737903       4.426162132073767E-003  4.103630631632256E-003 -1.799303801389165E-002 -1.576026496733370E-002 -1.761940112285080E-002  0.962906360571212       0.959010684725897       0.978434476575934     
  5.713641131007470E-003  3.590475596411786E-003  1.334878391216861E-002  1.108381678275748E-002  0.943765135214540       0.948748621827908      -1.857377736277376E-002 -1.852658051818977E-002 -1.778078875583081E-002 -2.156517074296935E-002  0.965221420866951       4.482782646913560E-002  4.235632674634585E-002  3.940327973535356E-002  1.980243051563463E-002  0.954441884412057     
  0.957870106513864       0.960045471354083       0.950895334652790       0.956603529871977       0.953037249151266       0.949416284411871       7.729697561382747E-003 -1.225149116526998E-002  0.998000943875693       0.974687914734407       0.973476741954286      -2.032432438852268E-002 -2.031579015963389E-002  0.970948037692914       1.636466175102371E-002  1.498921842448571E-003
  0.981664200368263       0.984712813212793       1.685191639784433E-002  2.051066236929128E-002  1.731728056569413E-002  1.395375649323916E-002  4.064859349033815E-002  3.801027074190373E-002  0.978988925011084       0.973768135238314       1.018769786309867E-002  6.865356002894551E-003  0.945292365597166       0.941786845846761       1.029345023368393E-003  1.067679702000290E-002
   1.01452953560177       0.961122359977928       0.956998216564761      -1.925578817021278E-002 -2.148237078355564E-002  0.938181819903515       0.934525394202530       2.341047753404493E-002  0.947351046619456       3.515950948737712E-002  3.198615050666410E-002  2.721692898059876E-002  4.815583130912027E-002  4.574751442604769E-002  4.328264415474569E-002  4.120217766390859E-002
 -6.719299592536476E-004  0.987927937144942       0.991159497451907       0.955275565092659       3.840648398239173E-003 -1.901061986057997E-003   1.01448278161878       2.395766317955487E-002  4.392809857435322E-002  4.133058624139425E-002  3.881812474169901E-002  2.055275619810013E-002  6.889813360078909E-003  1.368117262226141E-002  0.943832018962488       0.940235937099853     
  0.942795520616035       0.987887397465136       0.994361326575846       0.994425769307081       0.945841775831808      -2.148479912823589E-003  0.958889481036184       0.951523713912931       0.947744455189061       0.988984951900210       0.992671270540307       0.938705529324271        1.01103901555118       0.991163069415028       0.934909607957696       0.957019541037109     
  0.955010403368774       0.952865190782727       0.972027801193401       0.945891804455390       0.957726535120547       1.031484999410796E-002  6.696807509390112E-003   1.01680121945937        1.01539092989764        1.01682678356861        1.01905575330844       9.176460405934981E-004 -1.319078668974371E-003  1.031991279951495E-002  4.728589659503211E-002  4.453429342480737E-002
  4.199295298057771E-002  4.051590047631851E-002  0.950671631719545       0.946559412345374       0.930907373179077       2.077427496336817E-002  1.744044452464661E-002  2.644004329385455E-002  0.989928712777123       0.978672812971574       0.982546982021690       0.986279654435077       0.975388812704108       0.975379377484211       5.158860483793982E-002  4.914198775520245E-002
  4.666636149310023E-002  4.428251021290582E-002  4.118778853988238E-002  0.953792439953170       0.956200834504424       1.393478286062836E-002  1.740766874116096E-002  0.961769008117587       0.993599891291343       0.964295475740354       0.960267020077985       0.966851980832904       0.940319202723105       0.998462411593014        1.00145869033431       0.994560229655778     
  0.942440004360234       0.938741462251171        1.00226178514287       0.949040593339860       1.404800558422884E-002   1.01796120324528       2.805401990988090E-002  3.265218204027467E-003  0.936475546620963       0.952982799564785        1.00068324904500        1.00344087720116        1.00656682437110       0.967794962657322       0.945163396600821       0.949807389622494     
  0.945240458179937       6.317097194103918E-003  5.079791203395799E-002  4.789966339488455E-002  4.471450976387028E-002 -9.408793980117399E-003 -1.248935146823626E-002 -1.589210478155991E-002 -5.713361733601656E-003 -8.074244995907209E-003 -3.788501234503616E-003  0.987746996457519       0.979822480475246       0.999801825950772       0.944547585747364       0.936913898786304     
  0.932898871057689       2.448907742825807E-002  2.840085402048104E-002  2.451851946463509E-002  0.997255831559637       0.998597697115289       0.991125894389856        1.01834781578834        1.02040766882081       0.990745873260590       0.996260756846131       0.997385545461172       0.994520840408807       0.984524250441669       0.963443686704654       1.047078566076970E-002
  6.624278873280241E-003  0.934686957322154       0.951072680135070       0.948738607547597       3.218735818283425E-002  3.108879599475425E-002  2.910172952599808E-002  0.942326385932265       0.947670452510852       0.944257033037111       5.514969668645966E-002  5.262638980617024E-002  5.001667581432945E-002  0.983621743515185       0.987174120073328       0.987674277005756     