 VARIABLES = "X" "Y" "RO" "U" "V" "P" "M"
 ZONE T="  0.000000000000000E+000 " N=        9944  E=       19548
 ZONETYPE=FETRIANGLE DATAPACKING=BLOCK
 VARLOCATION=([3-7]=CELLCENTERED)
  -19.9782054645671       -16.7460447536127       -13.5432470514743       -10.4462771124608       -7.39483127129757       -4.39431260318683       -1.43672854734527        1.47853524247441        4.40194279230921        7.38347804238703        10.4122197804982        13.5308676756442        16.7310607632789        20.0189460056259        20.0156650185539        20.0123451374732     
   20.0090067226427        20.0056742799471        20.0022854763303        19.9988742323503        19.9954939648514        19.9920871178897        19.9886881104951        19.9853470049941        19.9820070605281        19.9783478910574        16.7317203104092        13.4557822172063        10.1645634122701        6.87452312340184        3.53259687976399       0.170578499054329     
  -3.16443525887912       -6.48474521199279       -9.79114624567630       -13.0836966857758       -16.3754018560739       -20.0188035791356       -20.0155069002833       -20.0121812769038       -20.0088400757232       -20.0054989473046       -20.0021446450312       -19.9987763328347       -19.9953939522161       -19.9920253568386       -19.9886729196427       -19.9853365630757     
  -19.9819979716434       0.999780834937093       0.998264355737297       0.996752247240904       0.995250334672861       0.993703823019980       0.992096374199913       0.990423137646916       0.988688587485881       0.986892603489360       0.985032853593955       0.983095331911197       0.981088574699123       0.978996388306578       0.976831448108653       0.974589894095633     
  0.972264314303394       0.969852154474664       0.967352590284390       0.964763300765665       0.962084645070061       0.959311640933561       0.956436476373308       0.953448031580423       0.950336886116476       0.947131767533178       0.943810997871504       0.940341996774744       0.936767153632309       0.933074343440469       0.929242088094763       0.925235451910884     
  0.921085077364652       0.916785699639510       0.912323416486553       0.907689236273471       0.902876692689336       0.897879242227030       0.892684283051965       0.887279030984310       0.881655797904784       0.875806791047956       0.869733124846716       0.863427541097159       0.856882061939038       0.850086642011026       0.843032387449036       0.835710780998064     
  0.828115413398658       0.820237826455946       0.812069724542060       0.803602696553312       0.794827873295426       0.785737579770925       0.776322890543830       0.766459603104594       0.756236651085149       0.745642606508501       0.734666794401795       0.723302201844940       0.711536456612329       0.699356912406784       0.686756310070013       0.673722886939859     
  0.660242726446843       0.646308439581459       0.631906532718814       0.617020315796028       0.601638670193585       0.585740956352165       0.569314687671396       0.552344378330951       0.535419354392579       0.518457439388553       0.501426356905956       0.484326173134952       0.467156480605450       0.449267480132397       0.431975251718473       0.415278208063025     
  0.399174627039365       0.383648531388317       0.368615183512247       0.354056208996572       0.339967526111277       0.326357963448103       0.313212501174360       0.300532186123547       0.288317957096771       0.276551518088921       0.265207810283628       0.254239330701968       0.243633451297349       0.233377769905861       0.223465021335013       0.213887102887474     
  0.204632324690999       0.195689437169057       0.187053835954830       0.178709252853068       0.170645991728573       0.162847028838961       0.155305526741041       0.148015092100880       0.140969624480113       0.134162908926414       0.127588047760619       0.121239471165462       0.115111971248798       0.109200241430860       0.103499748898223       9.800612374207325E-002
  9.271518566081388E-002  8.762345852779953E-002  8.272722113410234E-002  7.802272450162262E-002  7.358820293735878E-002  6.931654119678195E-002  6.520941921174037E-002  6.126509972803008E-002  5.748372408028608E-002  5.384322945700274E-002  5.035529150320446E-002  4.701782334607430E-002  4.381306846468518E-002  4.071176650333606E-002  3.771078291340212E-002  3.478720350972622E-002
  3.194133795390729E-002  2.917822936559418E-002  2.650067735040866E-002  2.391260721805306E-002  2.142010791314383E-002  1.903079018345294E-002  1.686371825533467E-002  1.477651170071534E-002  1.278886332635096E-002  1.091969091878677E-002  9.193858345341335E-003  7.546121621875599E-003  5.939519852269785E-003  4.477137705140743E-003  3.149529073784899E-003  1.994180355312029E-003
  1.070851304575105E-003  4.479621976620293E-004  1.422498940848403E-004  7.305502096885408E-005  3.170087763552073E-004  9.187817540489246E-004  1.830820935667004E-003  2.964704034042627E-003  4.249506972831946E-003  5.630804283478226E-003  7.302911660667405E-003  9.064052321614217E-003  1.092921224466521E-002  1.281296577713797E-002  1.474446878771607E-002  1.677113467759732E-002
  1.894317724021283E-002  2.122725556017001E-002  2.363317587505480E-002  2.610176961566364E-002  2.864047873406224E-002  3.129302230817957E-002  3.409876049556746E-002  3.705522600762188E-002  4.015204790155565E-002  4.337731613775435E-002  4.672025269139859E-002  5.016905841755060E-002  5.372034843425299E-002  5.737398429969512E-002  6.112265404016816E-002  6.532549639839515E-002
  6.967402232936122E-002  7.416568655119855E-002  7.879738886330072E-002  8.350063556292647E-002  8.834442739903367E-002  9.335500115013537E-002  9.853030842115375E-002  0.103872473225040       0.109371819850163       0.115047781913808       0.120941320141494       0.127102129273159       0.133543266501469       0.140267982838250       0.147272866081032       0.154559207261726     
  0.162130167574836       0.169986831973995       0.178133216206949       0.186572863189403       0.195310282977659       0.204530602697345       0.214092327135831       0.224001257230170       0.234266516775700       0.244896437581154       0.255898217550259       0.267282276714266       0.279059437512636       0.291237281959666       0.303826694569899       0.316840066635751     
  0.330284963439064       0.344171376455642       0.358512801548423       0.373309606955222       0.388572526245860       0.404307728694877       0.420500786903762       0.437162111233094       0.454234332802121       0.471709240890157       0.489260615319060       0.506681596179895       0.523970444240539       0.541129539732040       0.558162588772185       0.574751427164310     
  0.590872439025663       0.606505908365560       0.621650739200847       0.636308988585211       0.650444716752545       0.664069288697961       0.677197948891369       0.689848563405477       0.702041383905591       0.713827722221946       0.725249340271897       0.736314225563438       0.747030611049200       0.757400625545010       0.767432618899865       0.777135353146707     
  0.786517577439649       0.795501272158364       0.804155507924814       0.812485075594860       0.820495840690895       0.828192427620993       0.835579153268930       0.842663246259469       0.849507300610821       0.856141221792601       0.862568098550248       0.868791716505786       0.874815944750760       0.880644774805201       0.886281496860736       0.891729220837583     
  0.896991394342790       0.902072368241694       0.906979875396848       0.911718459402746       0.916292620046491       0.920512952137577       0.924617404988502       0.928604092428697       0.932475898427005       0.936217864477409       0.939826978879019       0.943309604155424       0.946657975942323       0.949875709489248       0.952978162097823       0.955941219321435     
  0.958771543035428       0.961525601662764       0.964200340145194       0.966793919318626       0.969305086917293       0.971733266182197       0.974079637051200       0.976345248081715       0.978533421793640       0.980648070743709       0.982640964574771       0.984579361649796       0.986448578465690       0.988253372812527       0.989997719168323       0.991682919176520     
  0.993304525170066       0.994863813684168       0.996363305473053       0.997858946410559      -1.144881575853137E-003 -9.301217279185087E-004 -1.105825921791192E-003  0.996028333796847       0.997469236965573       0.996022456586853       0.997249057930443      -2.572933252727583E-003 -4.493059573132767E-004  0.995684593563806       0.996463320071407      -2.102998194506075E-003
  0.994639204235553      -2.449187596221080E-003  0.994137864794830       0.992478671798135      -7.666753492582333E-004  0.992921289741746       0.993903401302011      -2.509256629068226E-003 -4.039530870464207E-003  0.994990067883161       0.995149706047860       0.998889174705365      -1.477504191889981E-003  3.202879409162831E-004  0.991173743488360       0.989406233833845     
  0.987634816938625       0.992017768293171       0.998195712192951       0.993472708570940       0.991260383227787      -4.108923749654198E-006 -2.186230625443717E-003 -4.143460095100347E-003  0.992906099620105       0.997442888541249        1.00053886252632       0.998180564359563        1.00122215184592      -3.402652028335686E-003  1.363991518702189E-003  0.996568608758619     
  0.996987452072505       0.999542081913654       0.989529402827142       0.990190470238125       0.988341853119331       0.986430842917513       0.990990985011411       0.992769112220088       1.076830237528502E-003 -8.943007920276588E-004  3.705866493137060E-003   1.00232630949422       0.990515105554283      -5.486108678175913E-003  2.647965749785703E-003  0.991026602979768     
  0.987642497237384       0.989034603984103       2.309586181739457E-003 -4.219281930122320E-003  0.991768176952950       0.999957822700689       0.999399701291989       4.138756235650596E-003  0.989198065060422      -2.624025692117685E-003 -3.862268248151221E-003   1.00323815037500        1.00129914663905       0.994914593389227       0.999046396367971        1.00111958225161     
  0.993810305194514       7.518925691373899E-003 -2.643178028197993E-003  0.999671363561144       0.998811083445493       5.798287256262694E-003  0.985674236534594       0.983685416719428       0.991919980045558       0.998048568350078       0.986930020035877      -5.966196508164123E-003  0.988336913243332       9.202943611116067E-003 -5.570358787253605E-004  6.483919105242810E-004
 -5.442447088628889E-003  0.984339139053209        1.00351000497725       0.987214216319674       0.985011488427686       0.997873589837032       0.995842142385240      -1.528049602727790E-003   1.00410382135030        1.00598138750878        1.00184596082261       0.984781087766715       0.982529650037474        1.00093335005581       0.994232736966176       0.986143572255140     
 -4.834177051655055E-003  5.793930225159344E-003  1.598173109032101E-003  7.573490219903675E-003 -7.196776155901210E-003 -1.854880399698504E-003 -1.247565605554010E-004  2.600498018639420E-004  2.122496328189903E-003  0.994797130975394        1.00267603955874       0.995652467232171       0.988340772259744       0.992622049827425       0.981963741724802       0.979807892442788     
  0.982792453415337       3.852357576899227E-003 -5.675270775064273E-003 -7.560762732913925E-003  0.977659870604440       0.989745277813821       5.290009234735310E-003  0.986064697835581       0.990949576899755       0.993760851012555        1.00043596632579       0.999658919155009       3.147291633929225E-003   1.00544272271850        1.00441646425619       0.996641883129466     
  0.998594270409952       6.345520126156472E-003   1.00008579915072        1.00238732332340       1.099269585831864E-002   1.00298061294828        1.00693834004707        1.00467393165558        1.00727406992449       0.990150187492573       0.993251720080836       0.989066765306113       1.591651283319218E-003  7.047935075648253E-003  0.990095291655668       0.985988263785847     
  0.983334560644538       8.991842275536269E-003 -6.195966271690278E-003 -4.024608714171499E-003 -2.573685983354832E-003 -3.869026137473270E-003  0.991431189193778       0.992547472039245       0.980673868529362       0.978480211283732       0.976101431190071       1.085358461351338E-002  0.992075356514523       0.996086670282695       0.995063717632545       0.997131128198320     
  4.892805445527259E-003  1.279632250086982E-002  0.987674357937476       0.987366480587274        1.00330586335571       0.989375139088358       8.921537911108975E-003  0.987415777851818      -4.250223679216581E-003 -8.119438996830486E-003  0.981467439354611       0.980131292293477       1.299301394586497E-002  0.981924549384358       0.977633773012440      -6.216498726848783E-003
  0.985424569040653      -7.597799579856485E-003  1.103082239622684E-002  0.994613233501176      -3.126463516472055E-003  3.674136730701050E-003  0.975345818710873       1.082735771591199E-002 -6.681278065766398E-004  8.210896832948182E-004  1.478471476308168E-002 -9.594169884695821E-004  6.801675810308131E-003  0.978749473859040      -6.370738978448756E-003 -9.088215436304713E-003
  8.817675291592306E-003   1.00564691451634        1.00854020121715       0.979567249683388       0.977115474717601       0.974003079500300       0.984650806610702       0.982508237177392       0.993793418064532      -1.711151553357800E-003  1.273940180210660E-002 -9.880263701862447E-003  0.976715355006667       0.974343104291170       1.511450683562544E-002  4.488894420424588E-003
  8.762917299567697E-003  1.086287529690993E-002  0.972983739652984       0.970590937144721      -8.355652609348948E-003 -1.048315747758208E-002 -1.953931495831654E-005  1.322725703832466E-002  0.983763290502547       0.980928224355715       0.982825687547591       0.980190429121163       0.981012195692671       0.980565582397266        1.00895739719319        1.00567916645387     
 -6.019348614760283E-003  1.010798548423087E-003   1.00220115377548        1.00143513861531       0.984833005279545        1.00432909562886        1.00397844550847       0.971840586184865       1.732692810367182E-002  0.981866829438502       0.983260944193957       1.117310774490222E-002  0.998717463018837       0.989606281003411       0.969257623521208      -3.689249847234950E-003
 -5.180296209642357E-003  0.985679103826676       0.996064934902094       1.547459360651851E-002  0.979511298549079       2.549818676546790E-003  1.689988546389260E-002  1.474178998887275E-002  0.973635222943189        1.00793620995270       0.978731210667212        1.00143317241484        1.00036569099376       0.978357032482410       0.997653744868958       1.353635483582525E-002
 -4.469574769569657E-003 -8.405859513517111E-003 -2.822886470902944E-003 -1.010737368941348E-002 -9.740289380681298E-003  3.448625120190082E-003  0.975761255719018       0.975905265903234       0.973319253982940       1.158606818476396E-002   1.00958804824536       0.970941145347805       0.968474833578786       6.609954865837302E-003  0.971832563837174       0.965987711528068     
  0.963749837133318       8.856104589981968E-003 -7.932227604716039E-003 -1.085677845875456E-002 -1.906672142241376E-003  1.916147858184801E-002  1.697922853762923E-002  0.996533309795292        1.00316172984868      -1.192798539867955E-002  0.983050467340546       0.979875760447128      -9.229248106619642E-004 -7.320091004479126E-003  1.461429806136075E-002   1.00207723063446     
 -1.066450664811119E-002 -1.298709391029745E-002  0.977696285646543       0.977211325150626       8.860654458317661E-003  9.458120313900770E-003  0.987640914373711        1.01106100851991       0.990546095954092       1.580781587563231E-002  1.922945081325034E-003  0.969624692410826       0.967132289207683       0.964497545707073       0.961438574482552       1.779346310190695E-002
  2.464134375823798E-004  0.970605834244411       1.391421726306109E-002  1.965694327694462E-002 -1.228134653409453E-002  0.993450889893852       0.994851678810173       0.997596157914131       6.538090179814002E-003 -6.522053667670114E-003   1.00627689578028        1.00624303725588       0.967756605488867      -5.810039779896568E-003 -4.885945650306312E-003  4.106004818451328E-003
  0.971008901341475       1.275399011937268E-002  0.999292561376207        1.00098346661007       2.152767689894889E-002  1.937528985367988E-002  1.705233861884942E-002 -4.024995838365094E-003  2.209590622820748E-002  0.975057458952113       0.972229371407810      -1.471358950652675E-002  0.988011495004239      -1.061982409799151E-002   1.01069227304450       1.587401726845234E-002
  9.275579966759892E-003  2.023724293996573E-002   1.00488199952486       0.968432851738394       0.965853715810785       0.996224842978519       0.962888689661497       2.390930065654062E-002  6.145735786188948E-003  2.184636534407985E-002   1.00887107839313       6.406503061058089E-003  3.738691661453557E-003  3.407855418774267E-003  1.820466409790125E-002  3.272552332525715E-003
 -8.916564709406201E-003  0.990515289071683       0.985518660398073       0.983496307079343       0.985915784181274       0.987954873989232       0.995231060156483       1.449627241692195E-002 -1.917361283696716E-003  0.966353255810692       2.085299867555184E-002  0.969707629685075       0.991096915183750       0.990113223751397       0.987761950264669       0.985555494004074     
  0.988445604124136       0.989382866212275      -1.230598623138947E-002 -3.090650715373218E-003   1.00042271351366       0.984627274882776       0.968455417889644       0.998168342693897       0.996950925020645       2.624949685263594E-002   1.00832798360257        1.00655517647854        1.01009585487961        1.01179342690831      -1.307215187673768E-002 -1.566045626280396E-002
 -8.507843465288996E-003  1.966393843597026E-002  1.716081861060704E-002  1.441848764963291E-002 -1.012117594043601E-002  0.990832775105836        1.00922105596435       6.177088412252078E-003  0.980627827157092      -7.272619570441926E-003  0.992520338196175       0.993223858792215       0.994374297033198       1.271877028920977E-003  0.972558216248490       1.240353649047125E-002
  1.197450013127708E-002  0.981085107865890       0.970942095449630       0.959579072262768       0.963209509548189       0.960319352977046        1.00435246698928       0.964858103582531       0.968049375353441       0.973920567046058       0.972245526525528       0.975900470927695       0.976813605979360       0.975203135934304       0.973574590064380       0.957329830780511     
  0.954043144264438      -5.408221384355508E-003 -1.286447268951536E-002   1.01230150290784        1.01350851365776       0.982664700783819       0.980102228345778       6.565815992578171E-003  6.581294679255061E-004  6.308314043815970E-004  2.997779964369840E-004 -6.121569089089397E-003   1.01159643042497        1.00729717678793      -1.050117480732651E-002  2.880364845280956E-002
  2.596492387595334E-002 -1.505240427922001E-002  9.098661717076498E-003 -1.553896321154058E-002 -1.845899261190869E-002  0.992260976531176       0.990361570734809      -1.260912777985006E-002 -1.535977888773755E-002  2.698742902062479E-002   1.01119032211639       1.172681925705535E-002  0.986751482105738       0.987339933759705        1.00324731248652        1.00925286735633     
   1.01212067845472       0.987962820289971       0.962021754174630       0.959068714182257       0.955831598965427       0.952292495423927      -3.087264495878300E-003  0.978038804883796       0.985188304111477       0.984603939217896       0.982895027064912        1.00942094579579       0.977780362509067      -1.237214516599792E-002  0.984362871398799       0.967372009134689     
  0.969285582945998       0.970634180843650       0.971804815867007        1.01130634697391        1.01188524434950      -8.903905905387657E-003 -1.800160179240536E-002  0.963619798775342       0.974044128058714       0.971114669632203       6.147986187261266E-003   1.00739540633256      -4.182604068346655E-003 -7.874642681241462E-003   1.01211220133673        1.00440604971951     
   1.00227427464047        1.01308310603728       2.249486273780601E-002  2.967490601361675E-002  2.694571188442644E-002 -9.244041813695628E-003  2.274773936250851E-002  2.455059391017477E-002  2.366492444730827E-002  0.978305509941927       0.976993166588033       3.163162577013254E-003  2.974590955077270E-003  0.999285106596632       9.737075176654985E-003   1.01418164520087     
  0.961079487964062       0.987841674604867       0.993646576520952       0.995497293147590       0.958004993622779      -1.218738990576895E-002 -1.515047417542219E-002  0.964882826943400       0.980499740508316      -1.531523349124869E-002  0.981463050976593       0.984682565594210       0.991064319927995        1.00672175880766       0.973132885377327       0.969298440823198     
  0.966224038044004       0.963929645985303       0.967913483613928        1.01354439102861      -7.350929750273342E-003 -1.092357330135298E-002  1.150808115896804E-002  2.409092940385315E-002  2.005487806994759E-002  1.728230675964284E-002  3.155259082279862E-002  2.911181358615027E-002  2.766690561767685E-002   1.00523473752583       1.432801324962319E-002 -1.599997360436375E-003
 -1.576709017557264E-003   1.01437896651078        1.01668933224400      -1.545633342134295E-002  0.954896616266174       0.951779930343081       3.261107832319144E-002  3.032111704429675E-002  2.805880973454231E-002 -1.245713038675999E-002   1.01406634643170        1.01775761857419       0.975573615239032       0.970115886900134      -5.262707819740179E-003  8.829498170101450E-003
  6.923944152417556E-003 -1.844563114302469E-002   1.01429288181449        1.01538697523231       2.499453072264701E-002  2.157516713067673E-002  0.966189959883583       0.967709060632551       0.969204269647157       0.969390546942962       0.997994376159613        1.00574809982846        1.00847878192645        1.00427429185908      -1.073297931804805E-002 -1.320573723658282E-002
 -1.537709856786362E-002  0.948595079839971      -1.066337506473619E-002 -1.408312699060751E-002  0.975475136707400       0.956384402095905        1.00928181560599        1.01212004335376       0.981408533775753      -1.402135123455567E-002  0.991509489148850      -1.774010392157861E-002 -2.104159660995866E-002  3.553650249587762E-002  3.334767061429056E-002  3.120256468574471E-002
  2.922198428356062E-002  0.972522731613799       0.975328623224835        1.00119355646394       0.999942976977142       2.337602474470130E-002   1.00739550016981       5.671371051672511E-005  5.936189414828919E-003  3.098078477341839E-003  0.966820679970450       0.969207601543375       0.978489804390777       2.476037804956413E-002  1.859848537085290E-002  1.593394044786495E-002
   1.00001497258898        1.00255248670841       0.999099907037002        1.00615856140475        1.01486985455212        1.01507386382617       1.298836273800168E-002   1.00380762297801       3.444609798745887E-002  3.156354203816433E-002  0.953331520821334       0.950073344796503        1.00563890002968       0.946503289902852       3.847736026118185E-002  3.623125256366024E-002
  3.410498945263730E-002   1.00921994075128       0.961132369947832       0.957645742071227       1.909423063771886E-002  0.962762376990296       0.985229884672773       0.977261875306065      -1.675004952972658E-002  0.965717094334968       2.040091478092616E-002  1.737184254476064E-002  0.964470107432043       0.966462834066583      -9.952671819644032E-005 -7.198822787357593E-003
 -1.419914489429655E-002  9.981522276886031E-003  0.964008286681904       0.961799073082410       0.968142985020097      -1.765482922182744E-002  8.525342295876731E-003  0.954848804851537       1.419957095560395E-002  2.239498175053140E-002  2.582388352993736E-002 -1.242184899749297E-002 -1.537009360783535E-002 -1.382573808961351E-002 -1.713116232576651E-002 -1.773600535777550E-002
  0.954864187131481       0.959039600562362      -2.173927085756561E-002  4.152123094448178E-002  3.910118499288969E-002  3.674573692447049E-002  3.494991989262378E-002  6.928287349488037E-003   1.01261568176050        1.01719597167911        1.01914482926391        1.00997207922989        1.01687581742008       0.971904245484049       0.975308562035821       0.960837187589774     
 -2.411572243416963E-003  3.758049867657062E-002  3.481539971527842E-002  3.179075348965638E-002  0.951994948073698       0.948222655889642       2.377471888675653E-002  0.996917658691209       4.378888365847208E-003  4.055376540455888E-003 -1.799118323160964E-002 -1.576810534602037E-002 -1.762974977539410E-002  0.962820824063389       0.958923557153459       0.978355452276367     
  5.821955539407278E-003  3.697704671382358E-003  1.328655455155485E-002  1.120136148427253E-002  0.943671406817368       0.948715456562957      -1.851849616876497E-002 -1.846315409502024E-002 -1.773330778561502E-002 -2.151857914868505E-002  0.965136563588786       4.472273826052572E-002  4.225478884298459E-002  3.930576525119659E-002  1.973104242650712E-002  0.954404622538239     
  0.957830533032119       0.960004755116892       0.950860619464719       0.956565028250965       0.953001193102900       0.949382775053001       7.842764096273925E-003 -1.226961878527990E-002  0.997944600723572       0.974606467587446       0.973394869425304      -2.032352476652659E-002 -2.030889930546781E-002  0.970902965336303       1.629841377205207E-002  1.455511680781652E-003
  0.981613197060536       0.984661025049769       1.678429754572380E-002  2.064533414519089E-002  1.744772297391791E-002  1.408020956838571E-002  4.081956484587543E-002  3.817645397581668E-002  0.978939277005416       0.973722404773513       1.012938620377374E-002  6.810745650648147E-003  0.945261644802095       0.941758587530911       9.842838889906648E-004  1.079657789692906E-002
   1.01445808604036       0.961035951983003       0.956910253460074      -1.926056202001322E-002 -2.148994708649460E-002  0.938156164176655       0.934502433766209       2.333386559063287E-002  0.947318895471947       3.532032079114639E-002  3.214096145438750E-002  2.713485775968845E-002  4.804731657922660E-002  4.564243230638797E-002  4.318078717996468E-002  4.110292701477675E-002
 -5.704700800836887E-004  0.987874277938512       0.991105266975413       0.955238252492403       3.791100161457002E-003 -1.939308694655143E-003   1.01442100643540       2.409895275389219E-002  4.410443752060984E-002  4.150243148688675E-002  3.898577935820369E-002  2.047987110712829E-002  7.005213633281499E-003  1.361736928075893E-002  0.943802252474757       0.940208632452914     
  0.942700990253673       0.987834949165280       0.994305324799720       0.994371127910118       0.945748391798663      -2.190351504608749E-003  0.958849704841446       0.951488890842153       0.947712177083946       0.988907691728936       0.992594772383272       0.938609313084296        1.01097769697823       0.991110056026786       0.934811976939997       0.956931591447776     
  0.954921651921638       0.952775714809654       0.971945286187568       0.945860701890928       0.957688074403249       1.025474262764549E-002  6.640245262618567E-003   1.01673582139428        1.01532338612189        1.01675852189277        1.01898843309868       8.708228265959927E-004 -1.364974472737510E-003  1.044237957168875E-002  4.746752463477696E-002  4.471083152384755E-002
  4.216566064736017E-002  4.068600659383994E-002  0.950580959081305       0.946467276782481       0.930808218966983       2.091114876588112E-002  1.757341057306680E-002  2.658529368410792E-002  0.989851103735122       0.978592348516774       0.982467689566652       0.986201277530795       0.975307357858593       0.975297714483272       5.147677081822116E-002  4.903369122029810E-002
  4.656126001472122E-002  4.418024834123268E-002  4.108970721147437E-002  0.953756413820820       0.956163749169384       1.406398210246859E-002  1.733850571031332E-002  0.961727416870609       0.993523009440712       0.964253451702014       0.960227513757279       0.966809268221997       0.940223833691809       0.998387482002157        1.00138431997386       0.994506706110501     
  0.942411045762506       0.938715115401323        1.00220423910828       0.948949524550710       1.398248482423227E-002   1.01789973995825       2.820227996900422E-002  3.214299229813485E-003  0.936450927444285       0.952893145072266        1.00062751056144        1.00338175499255        1.00650807687237       0.967710815981753       0.945071064777847       0.949773733226480     
  0.945209721519878       6.435365177617332E-003  5.098504435290527E-002  4.808148841963335E-002  4.489113761292131E-002 -9.331618699235380E-003 -1.241617373260842E-002 -1.582025254871628E-002 -5.629408098601251E-003 -7.990362069243712E-003 -3.696867636547834E-003  0.987695779679530       0.979742121725892       0.999726640421693       0.944517321115266       0.936817422215132     
  0.932800931726087       2.463222916451038E-002  2.855060122925272E-002  2.444026847787450E-002  0.997201007263603       0.998543722029086       0.991074096136300        1.01827782513817        1.02034309261007       0.990667928604856       0.996185006943390       0.997309331080262       0.994443529586859       0.984473593586813       0.963357950370435       1.040876914047925E-002
  6.565648363408181E-003  0.934663489342770       0.950982413708737       0.948647733424038       3.209860961167030E-002  3.100157336384306E-002  2.901726231959471E-002  0.942232614159981       0.947579109389460       0.944164528367139       5.503456584050766E-002  5.251484443514327E-002  4.990867515980086E-002  0.983542379881847       0.987095483634594       0.987595384754904     