 VARIABLES = "X" "Y" "RO" "U" "V" "P" "M"
 ZONE T="  0.000000000000000E+000 " N=        9944  E=       19548
 ZONETYPE=FETRIANGLE DATAPACKING=BLOCK
 VARLOCATION=([3-7]=CELLCENTERED)
  -19.9782054645671       -16.7460447536127       -13.5432470514743       -10.4462771124608       -7.39483127129757       -4.39431260318683       -1.43672854734527        1.47853524247441        4.40194279230921        7.38347804238703        10.4122197804982        13.5308676756442        16.7310607632789        20.0189460056259        20.0156650185539        20.0123451374732     
   20.0090067226427        20.0056742799471        20.0022854763303        19.9988742323503        19.9954939648514        19.9920871178897        19.9886881104951        19.9853470049941        19.9820070605281        19.9783478910574        16.7317203104092        13.4557822172063        10.1645634122701        6.87452312340184        3.53259687976399       0.170578499054329     
  -3.16443525887912       -6.48474521199279       -9.79114624567630       -13.0836966857758       -16.3754018560739       -20.0188035791356       -20.0155069002833       -20.0121812769038       -20.0088400757232       -20.0054989473046       -20.0021446450312       -19.9987763328347       -19.9953939522161       -19.9920253568386       -19.9886729196427       -19.9853365630757     
  -19.9819979716434       0.999143117919227       0.997622887900842       0.996107184755783       0.994601842919049       0.993051944237876       0.991441126406510       0.989764542834737       0.988026690282123       0.986227460690638       0.984364529741738       0.982423880982443       0.980414077551209       0.978318914147482       0.976151096206681       0.973906767813905     
  0.971578516943217       0.969163795041900       0.966661784066733       0.964070166358177       0.961389305244554       0.958614216813074       0.955737085144716       0.952746784766662       0.949633891375992       0.946427147390398       0.943104860863681       0.939634436744022       0.936058280743034       0.932364260406365       0.928530890213494       0.924523227913247     
  0.920371929020165       0.916071733457517       0.911608745764268       0.906973986478911       0.902161006302170       0.897163283408334       0.891968242586924       0.886563132342395       0.880940302964705       0.875092005241618       0.869019400052538       0.862715279728422       0.856171719938524       0.849378731496705       0.842327477337050       0.835009496285532     
  0.827418431787953       0.819545875474890       0.811383576194819       0.802923160615052       0.794155789475931       0.785073807058617       0.775668297314758       0.765815176822204       0.755603271332254       0.745021124819035       0.734058017047230       0.722706867813217       0.710955225155737       0.698790343924332       0.686204839331575       0.673186807832667     
  0.659722173633700       0.645803360547826       0.631416675397976       0.616545213415855       0.601177619431137       0.585293012704164       0.568878648470546       0.551918781293584       0.535002214261658       0.518046767382161       0.501020143514870       0.483922400618727       0.466753152807252       0.448862557726506       0.431566896849932       0.414864894806360     
  0.398755127752615       0.383221890633994       0.368180654021881       0.353613251687547       0.339515796923674       0.325897302337162       0.312742897097976       0.300053768022177       0.287830975386052       0.276056313349559       0.264704792424158       0.253728950595682       0.243116214259682       0.232854226222685       0.222935760773232       0.213352746156630     
  0.204093514703288       0.195146833772528       0.186508113518615       0.178161091661236       0.170096077585538       0.162296049691528       0.154754173312057       0.147464055594561       0.140419594511599       0.133614571787485       0.127042085324019       0.120696559442694       0.114572779097624       0.108665429646899       0.102969968767648       9.748201590200008E-002
  9.219737894750971E-002  8.711256805010273E-002  8.222384735854638E-002  7.752745220474350E-002  7.310143450419770E-002  6.883883981679918E-002  6.474132741038754E-002  6.080714386192699E-002  5.703640693777984E-002  5.340709742418097E-002  4.993083735047767E-002  4.660552168810768E-002  4.341343856214314E-002  4.032544342993300E-002  3.733843206963534E-002  3.442963191177984E-002
  3.159940641339607E-002  2.885283287465968E-002  2.619276226571874E-002  2.362317099094550E-002  2.115018872095723E-002  1.878145572970430E-002  1.663495012781911E-002  1.456961099516012E-002  1.260508405377002E-002  1.076020243296173E-002  9.059585045212152E-003  7.439181906352078E-003  5.863396989156099E-003  4.434200406708820E-003  3.143293478707905E-003  2.028683511591405E-003
  1.149961838118141E-003  5.733783576990495E-004  3.107034943193692E-004  2.856273602577508E-004  5.880248727801332E-004  1.248654372686243E-003  2.217974939280581E-003  3.405464764378085E-003  4.739932034629800E-003  6.167083766634578E-003  7.888009440295083E-003  9.695116117845407E-003  1.160454942561048E-002  1.352951821165989E-002  1.550039623424797E-002  1.756582218614283E-002
  1.977699664957757E-002  2.209996491864701E-002  2.454471790400108E-002  2.705119864490441E-002  2.962707077803407E-002  3.231672924927270E-002  3.516003683028641E-002  3.815441628623303E-002  4.128930315465821E-002  4.455260116915037E-002  4.793338278470188E-002  5.141970712648595E-002  5.500815164481338E-002  5.869857476971095E-002  6.248359064475949E-002  6.672562701369321E-002
  7.111310336696648E-002  7.564341415263526E-002  8.031339780455314E-002  8.505399404944301E-002  8.993474863494691E-002  9.498204998286984E-002  0.100193775938311       0.105572007695557       0.111106950414712       0.116818106352680       0.122746609520126       0.128942334200519       0.135418273487874       0.142177553606065       0.149216604564347       0.156536586105893     
  0.164140536286501       0.172029406757821       0.180207090843306       0.188677004135167       0.197443529437508       0.206692194801315       0.216280836972221       0.226215092354745       0.236503920617600       0.247155477178436       0.258176771180204       0.269578028387120       0.281369863360482       0.293559632198239       0.306157982727160       0.319177052890006     
  0.332624134776594       0.346508930772892       0.360844627011142       0.375631269485886       0.390879249380487       0.406594379750124       0.422761898457716       0.439391843508458       0.456426618448227       0.473857728833711       0.491359636408560       0.508726189853688       0.525955887571583       0.543051344319306       0.560016505203220       0.576534864013857     
  0.592583424349535       0.608143075649314       0.623213228316418       0.637796404075815       0.651857302001937       0.665407655130182       0.678463012358076       0.691041486747150       0.703163521738607       0.714880397379092       0.726233856664866       0.737232037433086       0.747883297360831       0.758189904426648       0.768160288169064       0.777803266969231     
  0.787127626976755       0.796055902704695       0.804656793696873       0.812935100440861       0.820896677633782       0.828546134442484       0.835887764174262       0.842928745868358       0.849731282449830       0.856325085368321       0.862713209190497       0.868899398784139       0.874887480830880       0.880681403670937       0.886284419477572       0.891699603042951     
  0.896930367347687       0.901981026277659       0.906859258888040       0.911569577439187       0.916116454021434       0.920311615268445       0.924391595688502       0.928354527139535       0.932203285126064       0.935923010252515       0.939510719372279       0.942972748173670       0.946301388643169       0.949500244025063       0.952584590146857       0.955530459648481     
  0.958344478885187       0.961082795689362       0.963742378963533       0.966321404563591       0.968818629845190       0.971233481789664       0.973567132496163       0.975820621746005       0.977997249769524       0.980100902995714       0.982083589473336       0.984012211339380       0.985872152246424       0.987668137174772       0.989404112061181       0.991081362939234     
  0.992695452627827       0.994247640255027       0.995740423595030       0.997229493361751      -9.512246481555786E-004 -7.783248227747692E-004 -8.657960623166022E-004  0.995381187027712       0.996824818189552       0.995374710649366       0.996628048282920      -2.355463879264779E-003 -3.400023457709014E-004  0.995069151081240       0.995849386377381      -1.965472075747361E-003
  0.993989252637259      -2.271139443025353E-003  0.993528068654642       0.991876094783414      -4.704010463578624E-004  0.992267740119091       0.993251378594493      -2.246725911637666E-003 -3.836652418251542E-003  0.994379924268329       0.994544546393024       0.998263739243740      -1.381779808494473E-003  3.862513658883244E-004  0.990516857929100       0.988746134087342     
  0.986971547692888       0.991362427890399       0.997577089642952       0.992868823819449       0.990666347547783       3.538220466680966E-004 -1.855702965019555E-003 -3.906960537581846E-003  0.992252170857944       0.996831698670439       0.999911632254942       0.997537025706910        1.00058957283735      -3.278407135662815E-003  1.387910503314178E-003  0.995967290701452     
  0.996340681427860       0.998902590665389       0.988940047213978       0.989532126835976       0.987680535626054       0.985766460860070       0.990394496228610       0.992174795640165       1.487210509492108E-003 -5.097867409603091E-004  4.214520993213742E-003   1.00170093660793       0.989930798052067      -5.265334960974762E-003  2.632395167982050E-003  0.990369730743782     
  0.987062709866766       0.988451926725500       2.769784875033239E-003 -3.936466735622232E-003  0.991112502820233       0.999317266014987       0.998783909024106       4.086320551775244E-003  0.988538688151105      -2.540991753623184E-003 -3.697189617852321E-003   1.00260977934302        1.00067947067193       0.994264056625610       0.998403308183450        1.00048002847196     
  0.993157806270070       7.402078452593761E-003 -2.273716826206515E-003  0.999049810056027       0.998203760129606       5.711353981859136E-003  0.985103949765593       0.983124804031199       0.991335394521665       0.997450823301389       0.986356646215423      -5.713704548419405E-003  0.987761231524116       9.062982837952725E-003 -5.031220463634431E-004  6.617344890854850E-004
 -5.290495327972332E-003  0.983671081521731        1.00289042345321       0.986551813425983       0.984345460428502       0.997227194168546       0.995192760603114      -1.485476575580661E-003   1.00348003053077        1.00536222010459        1.00121038753536       0.984217203761094       0.981975677638288        1.00032153331183       0.993639521414943       0.985576551575271     
 -4.723254832172442E-003  5.693858310925277E-003  2.078317582511559E-003  7.448479137818360E-003 -7.058631723184082E-003 -1.451408625296149E-003 -1.215239954330023E-004  6.911852166619106E-004  2.096855322805312E-003  0.994145956835755        1.00206137825772       0.995061299353344       0.987680556716426       0.991967796556098       0.981291573839296       0.979132737804209     
  0.982122432793566       3.788864061245306E-003 -5.483070416875157E-003 -7.336746876435920E-003  0.976981692414521       0.989168600179753       5.846567300280662E-003  0.985398996440857       0.990373002379208       0.993107794943450       0.999832964460294       0.999065101192486       3.676281634460551E-003   1.00481742891138        1.00378576123303       0.995993063539027     
  0.997947914455395       6.227434405968917E-003  0.999443312485056        1.00174878772535       1.082794212842907E-002   1.00237325413910        1.00631124359527        1.00406062820067        1.00666302164384       0.989492520780795       0.992667928932281       0.988495097094019       1.556041933278302E-003  7.652349484461739E-003  0.989437344880518       0.985324367205901     
  0.982666201635814       8.846684449237072E-003 -5.895921246599652E-003 -3.647306976669612E-003 -2.541700022013845E-003 -3.798295231239009E-003  0.990775023781888       0.991892519106050       0.980001090743803       0.977804585587040       0.975422533326685       1.154654465276138E-002  0.991500021860087       0.995436629432374       0.994411902635535       0.996542902733532     
  5.470395215406650E-003  1.352714013858410E-002  0.987104507714673       0.986801638946666        1.00267024444790       0.988716502440430       9.571900874280379E-003  0.986754419648325      -3.912496291790606E-003 -7.847871902650983E-003  0.980796301524656       0.979589003554860       1.280354026991367E-002  0.981371534132127       0.977104854917396      -5.871129331872279E-003
  0.984864331601206      -7.418091533905742E-003  1.085884073768750E-002  0.994031366338783      -2.702981603211717E-003  3.599087052460782E-003  0.974828266413927       1.153760730609575E-002 -2.165822326458457E-004  1.321992688941656E-003  1.555193283508316E-002 -9.653893130715344E-004  7.427018044433848E-003  0.978217788543498      -6.273610081202176E-003 -8.965915975039394E-003
  9.488460144393182E-003   1.00501439007106        1.00791172073569       0.978894227783876       0.976439548024783       0.973322402756004       0.983985238513798       0.981839649356892       0.993139729588987      -1.238561681304095E-003  1.348145095081691E-002 -9.670802903835434E-003  0.976192726164156       0.973832495343414       1.490238883155317E-002  5.088030892323810E-003
  8.610231073505926E-003  1.158646718095155E-002  0.972478658053116       0.970098673316027      -8.040487557459343E-003 -1.019505428650655E-002  5.022010500824786E-004  1.303109029631531E-002  0.983206800331473       0.980387020240783       0.982279078481176       0.979657423590733       0.980341417551435       0.979895023316779        1.00834208774804        1.00507313939949     
 -5.627865698093694E-003  9.657806305100991E-004   1.00160266799644        1.00084558066181       0.984282643172045        1.00369332007626        1.00334073558417       0.971342727450127       1.709396496663800E-002  0.981329583078941       0.982720762350275       1.099293965485573E-002  0.998132769755101       0.989036917850600       0.968772195691335      -3.667071454014262E-003
 -5.121438218808444E-003  0.985015663654343       0.995485909626452       1.525750938902362E-002  0.978983713430736       3.099982650075094E-003  1.770549279950845E-002  1.552016496199883E-002  0.972952501948590        1.00731454712724       0.978058248785246        1.00079166900813       0.999721147648235       0.977829489531552       0.997005256379587       1.333356394078068E-002
 -4.024833649147576E-003 -8.049239385573422E-003 -2.330177014294025E-003 -9.860480204565753E-003 -9.572891345328514E-003  3.361539677853545E-003  0.975080683903162       0.975389252069986       0.972815999195097       1.139699905707690E-002   1.00896459365722       0.970255229469210       0.967786500692474       7.256868528427953E-003  0.971148484247476       0.965297007106243     
  0.963057258777533       8.694907729032742E-003 -7.848878637940695E-003 -1.075115130746750E-002 -1.920942722803429E-003  2.000633836604286E-002  1.779677786901356E-002  0.995882964711358        1.00252109662541      -1.169773993379489E-002  0.982383592779082       0.979205149498098      -3.806984925763156E-004 -6.901741327985965E-003  1.540517608202522E-002   1.00143389072061     
 -1.033475674556236E-002 -1.268273816413227E-002  0.977174406627829       0.976697137535321       9.553026373448455E-003  1.017737515043061E-002  0.987082550253706        1.01043650174033       0.989981226228438       1.558726310157496E-002  2.494497103460922E-003  0.968938722040834       0.966444121986279       0.963807021333052       0.960744935972052       1.755671177909236E-002
  1.906953770615988E-004  0.970115721184204       1.370625436371804E-002  1.940373896798520E-002 -1.208269949161458E-002  0.992878098742787       0.994281438632580       0.997020359317692       7.206469242912376E-003 -6.474407106856486E-003   1.00564277260023        1.00560661477852       0.967280980663127      -5.345485454279605E-003 -4.873391516032241E-003  4.726940495955827E-003
  0.970325142333175       1.255364203723554E-002  0.998645687230432        1.00033787448259       2.241103536413276E-002  2.023193270761400E-002  1.788206829071678E-002 -3.513431440201761E-003  2.182295116242768E-002  0.974548958003966       0.971734120858228      -1.448053740456790E-002  0.987459419993794      -1.025296428469081E-002   1.01007393731530       1.565099134776566E-002
  9.106301400246434E-003  1.998024041324567E-002   1.00424238714216       0.967747077498930       0.965166094105528       0.995658069381004       0.962198399848144       2.482754952843742E-002  6.018037340069064E-003  2.274037435588307E-002   1.00823940463522       7.097141773649521E-003  4.382496661499717E-003  4.075389154999356E-003  1.796431611592155E-002  3.174042639255886E-003
 -8.476026392228025E-003  0.989957815155640       0.984972247248920       0.982959015903461       0.985372083009375       0.987408644568799       0.994578815085514       1.529961994507498E-002 -1.353809632573629E-003  0.965882706465319       2.059221901857923E-002  0.969024021229997       0.990440050600954       0.989455351380842       0.987101350941428       0.984892334697425     
  0.987785781229020       0.988723828248190      -1.215612946238865E-002 -3.113212526941961E-003  0.999841884557420       0.984094014880884       0.967973067615572       0.997519575514492       0.996300324852328       2.719961786904919E-002   1.00772343339870        1.00595520449997        1.00948678181487        1.01118063978454      -1.272793086500952E-002 -1.533845048661578E-002
 -8.122090574482725E-003  2.053187857285247E-002  1.800207400020259E-002  1.523344612700505E-002 -9.722327398596568E-003  0.990282765475068        1.00858720519797       6.038400168862298E-003  0.980099395714168      -6.789239907584368E-003  0.991954635945817       0.992662096080012       0.993819944198393       1.865722874169970E-003  0.971877461635517       1.315533386018210E-002
  1.273926019681938E-002  0.980563241777488       0.970261117668513       0.958885589908135       0.962758495897221       0.959884011157235        1.00375112239104       0.964399434498383       0.967365749707878       0.973242944362511       0.971567082391139       0.975224496303693       0.976139637162509       0.974527878693862       0.972898159232742       0.956911071166552     
  0.953642829519101      -4.878950787526370E-003 -1.248607258278288E-002   1.01168057965261        1.01288521519392       0.981998535348730       0.979432929614152       6.416918926007214E-003  5.845079921957801E-004  1.250394072231665E-003  9.455604538658694E-004 -6.118742496195139E-003   1.01096638950650        1.00666040728155      -1.004009248957768E-002  2.979440924249587E-002
  2.691640977982863E-002 -1.486980564932198E-002  9.835618605503939E-003 -1.517854137230246E-002 -1.811575168985318E-002  0.991605232652180       0.989703554817134      -1.234713450448086E-002 -1.508096991173506E-002  2.668254512717057E-002   1.01058736413027       1.250386248845640E-002  0.986089489460199       0.986678672092064        1.00266216852764        1.00865446002670     
   1.01152377286825       0.987302528220697       0.961577725780357       0.958640683851753       0.955421146745412       0.951901643077723      -2.495276913165504E-003  0.977527948419831       0.984525004553555       0.983940023887834       0.982229653791955        1.00878564818381       0.977107880581903      -1.195191004283846E-002  0.983699028851190       0.966686598056705     
  0.968604453768234       0.969955170494458       0.971127554796769        1.01067917506199        1.01125332131261      -8.403486333713541E-003 -1.778831208183384E-002  0.963169009673766       0.973544118547965       0.970627691108023       6.859698283996378E-003   1.00680190514368      -4.212236151970316E-003 -7.837624832239168E-003   1.01147871173556        1.00381200241774     
   1.00169746570957        1.01247563627730       2.339984736340358E-002  2.935124345929140E-002  2.664456155903515E-002 -9.217019058520471E-003  2.247157195313935E-002  2.426042615978653E-002  2.338526073998029E-002  0.977799008016491       0.976320270384205       3.852799443245923E-003  2.860759349252271E-003  0.998713116363663       9.561766230229134E-003   1.01355527615229     
  0.960642103969560       0.987304881657077       0.992992171416200       0.994844640368427       0.957308421233885      -1.171026531287391E-002 -1.499927080366368E-002  0.964196175408230       0.979831559628858      -1.492544096348117E-002  0.980948537068899       0.984161269776037       0.990524419757339        1.00608317593773       0.972639978843643       0.968817363731557     
  0.965759744766308       0.963481124395272       0.967442354959942        1.01292882764935      -7.357670730084131E-003 -1.086392871634292E-002  1.229669701522702E-002  2.501283928688511E-002  2.093413281054188E-002  1.813564390849236E-002  3.257971206382752E-002  3.011175435360960E-002  2.865210185360557E-002   1.00465355687806       1.515539256905979E-002 -1.649354442363967E-003
 -1.642105142033762E-003   1.01376787624402        1.01607672771957      -1.503511841841332E-002  0.954197956965971       0.951079352513932       3.227010037175204E-002  2.999666129697823E-002  2.775127381490961E-002 -1.240818106305044E-002   1.01343731439304        1.01713282873868       0.975070756046919       0.969638029378457      -5.297529684300076E-003  9.580881608338367E-003
  6.768224238068873E-003 -1.815054013606155E-002   1.01369192926747        1.01479197839852       2.470468775506585E-002  2.131093093901547E-002  0.965506264794496       0.967027839013182       0.968524817128558       0.968712173586489       0.997432288511555        1.00516000661873        1.00789231169515        1.00370173889650      -1.021598171118370E-002 -1.275799936639269E-002
 -1.492230705752991E-002  0.947892558047532      -1.064443511161238E-002 -1.404466245693053E-002  0.974976305209382       0.955688319133757        1.00864517392828        1.01148542045295       0.980741746492208      -1.394135750628370E-002  0.990852551390775      -1.757234054198572E-002 -2.084662149977558E-002  3.518073273376680E-002  3.300721507390943E-002  3.087638371282314E-002
  2.890891815708291E-002  0.972037986608961       0.974836161053822        1.00062559125240       0.999385018345719       2.429661463240898E-002   1.00681976177769       7.235152249008451E-004  6.665918973149674E-003  3.809022756331283E-003  0.966360931041411       0.968740003036108       0.977989156498616       2.447576539528025E-002  1.835462344370955E-002  1.570866012267178E-002
  0.999367653718735        1.00190760867166       0.998450774004957        1.00558938636426        1.01423977377663        1.01444211166885       1.278530583884693E-002   1.00316508680597       3.551149609271803E-002  3.259459365419524E-002  0.952633547831096       0.949373353491392        1.00499689297557       0.945801127606665       3.810808024369106E-002  3.587748472966003E-002
  3.376497577634922E-002   1.00865019029438       0.960442058144671       0.956952155378536       1.884724304133119E-002  0.962075487542653       0.984567081350366       0.976590066872383      -1.661497663823345E-002  0.965266818505730       2.129461121083099E-002  1.823953155735419E-002  0.963786187932935       0.965781493096079       5.874730161935109E-004 -6.654298669141939E-003
 -1.370172604710839E-002  9.800480216830684E-003  0.963563465211037       0.961366388527696       0.967686790498462      -1.739924520365636E-002  9.288248051386493E-003  0.954152911005566       1.504178028135007E-002  2.212658081588163E-002  2.553284889315950E-002 -1.232993066997783E-002 -1.526113842634203E-002 -1.370139983003367E-002 -1.703330331707936E-002 -1.734107854700428E-002
  0.954170261329581       0.958349345986948      -2.142103564862124E-002  4.113831998945045E-002  3.873514302243879E-002  3.639335335474023E-002  3.460995511082807E-002  6.766683106810725E-003   1.01202671140132        1.01659746135122        1.01855144374062        1.00937855187787        1.01628893700858       0.971429533790275       0.974824269745277       0.960150194825981     
 -1.781463266338382E-003  3.868537751588857E-002  3.588686727226228E-002  3.282631855439781E-002  0.951297719687972       0.947523523194110       2.471458449312041E-002  0.996364749157991       4.242177823001762E-003  3.915805324820508E-003 -1.787197787510992E-002 -1.569979792248609E-002 -1.757239273454155E-002  0.962136647002809       0.958236460055547       0.977682713332764     
  6.565230800083676E-003  4.435656809734781E-003  1.307970877111438E-002  1.200234116432801E-002  0.942969745384796       0.948347091944445      -1.809611460310587E-002 -1.799055781479425E-002 -1.735841937883827E-002 -2.114617221645663E-002  0.964455047840091       4.432633503204580E-002  4.187403688921438E-002  3.894288196942045E-002  1.948063365635306E-002  0.954003257512207     
  0.957410597352448       0.959575960203232       0.950479755072991       0.956153899479200       0.952609631894061       0.949011620854007       8.616398460412662E-003 -1.225420497069275E-002  0.997400074782195       0.973931472699344       0.972719867303293      -2.020820551166005E-002 -2.016141669288687E-002  0.970441403101937       1.607076535295609E-002  1.339082338499173E-003
  0.981106457263719       0.984148896219455       1.655321130637141E-002  2.155538937137158E-002  1.833176579924795E-002  1.493987443642586E-002  4.196301068598373E-002  3.928919858554864E-002  0.978442889952177       0.973256279564389       9.942910423069037E-003  6.643592252692938E-003  0.944913081867203       0.941429935416137       8.621307516642231E-004  1.161327225965083E-002
   1.01382425021650       0.960351569072366       0.956223078308067      -1.917435682292356E-002 -2.141617403884688E-002  0.937848490207012       0.934216407956872       2.306068168063100E-002  0.946958687712467       3.639870638313356E-002  3.318104758911591E-002  2.683803031825865E-002  4.763864411558367E-002  4.524877224858449E-002  4.280149682097092E-002  4.073552008417473E-002
  1.332197361318354E-004  0.987348112171248       0.990575532032806       0.954836764434867       3.647541830432705E-003 -2.028221285671431E-003   1.01383991415703       2.505198803688890E-002  4.528391178893992E-002  4.265298579848807E-002  4.010949545775921E-002  2.022559142193492E-002  7.795348026380785E-003  1.340595491181431E-002  0.943461242722464       0.939887403002227     
  0.941996292948671       0.987318462247712       0.993762550206130       0.993839035102689       0.945044376728295      -2.294955619123921E-003  0.958428613299125       0.951107246033058       0.947350840774925       0.988248256175756       0.991938703231103       0.937902889641470        1.01039881807722       0.990589961977605       0.934104171209572       0.956241537751002     
  0.954231724647898       0.952085898799976       0.971270215381159       0.945508836791250       0.957277613615639       1.006250258337552E-002  6.466570662279075E-003   1.01613050128192        1.01470496102337        1.01613727411258        1.01837308291102       7.417641752429992E-004 -1.486812773536668E-003  1.127784319657601E-002  4.868262665008658E-002  4.589287904927560E-002
  4.332286688582656E-002  4.182732543128239E-002  0.949884933540835       0.945769510484397       0.930099026735180       2.183692156315140E-002  1.847521039794407E-002  2.756300022616570E-002  0.989192384269701       0.977923054623896       0.981802464739862       0.985539458110331       0.974634713223478       0.974626334493864       5.105647623535748E-002  4.862852559539987E-002
  4.616997752522196E-002  4.380148157103107E-002  4.072965322924303E-002  0.953365248856528       0.955764300296949       1.494281268888473E-002  1.710325579703969E-002  0.961291917158029       0.992867413933706       0.963815197134284       0.959809008448892       0.966365985548868       0.939519453707377       0.997737062571076        1.00073618819207       0.993983416607398     
  0.942076340823112       0.938401252726007        1.00165150466329       0.948254689286979       1.376598190632119E-002   1.01732202661332       2.920059514015456E-002  3.066365099847957E-003  0.936151217649890       0.952200289336263        1.00008831987778        1.00281727595497        1.00594725500703       0.967032307622516       0.944374713895824       0.949401374480413     
  0.944860547077718       7.245561133049137E-003  5.223736956794862E-002  4.929919711719478E-002  4.607495103416734E-002 -8.778303404141364E-003 -1.188645509483866E-002 -1.529682214725072E-002 -5.035788704582091E-003 -7.395401668007891E-003 -3.055421477760668E-003  0.987189057295850       0.979074925144374       0.999076555228715       0.944172067802318       0.936112021191026     
  0.932094215061588       2.559894049629119E-002  2.956063454629396E-002  2.416277822588705E-002  0.996668119310509       0.998017764039220       0.990563586834017        1.01765048096663        1.01974466234786       0.990009782305950       0.995532319782678       0.996656740936761       0.993788274175572       0.983970537020798       0.962676308488255       1.021049872388544E-002
  6.385306228143511E-003  0.934372518780097       0.950289993226569       0.947955500044980       3.177092262553835E-002  3.068232955636016E-002  2.871355277975920E-002  0.941533041973427       0.946884996384118       0.943469596795251       5.460301628823288E-002  5.209831151237804E-002  4.950701703468077E-002  0.982878594370107       0.986434452240215       0.986935006772427     