 VARIABLES = "X" "Y" "RO" "U" "V" "P" "M"
 ZONE T="  0.000000000000000E+000 " N=        9944  E=       19548
 ZONETYPE=FETRIANGLE DATAPACKING=BLOCK
 VARLOCATION=([3-7]=CELLCENTERED)
  -19.9782054645671       -16.7460447536127       -13.5432470514743       -10.4462771124608       -7.39483127129757       -4.39431260318683       -1.43672854734527        1.47853524247441        4.40194279230921        7.38347804238703        10.4122197804982        13.5308676756442        16.7310607632789        20.0189460056259        20.0156650185539        20.0123451374732     
   20.0090067226427        20.0056742799471        20.0022854763303        19.9988742323503        19.9954939648514        19.9920871178897        19.9886881104951        19.9853470049941        19.9820070605281        19.9783478910574        16.7317203104092        13.4557822172063        10.1645634122701        6.87452312340184        3.53259687976399       0.170578499054329     
  -3.16443525887912       -6.48474521199279       -9.79114624567630       -13.0836966857758       -16.3754018560739       -20.0188035791356       -20.0155069002833       -20.0121812769038       -20.0088400757232       -20.0054989473046       -20.0021446450312       -19.9987763328347       -19.9953939522161       -19.9920253568386       -19.9886729196427       -19.9853365630757     
  -19.9819979716434       0.999348024758587       0.997828662610241       0.996313747644307       0.994809113954510       0.993259868450272       0.991649649955078       0.989973606656211       0.988236227195077       0.986437397676238       0.984574788807204       0.982634380512577       0.980624729180776       0.978529625386896       0.976361769584632       0.974117302855875     
  0.971788810175355       0.969373740797849       0.966871275759976       0.964279097369989       0.961597570687730       0.958821713349175       0.955943710853198       0.952952438605567       0.949838474227125       0.946630576763698       0.943307054307103       0.939835307358497       0.936257766254788       0.932562302838511       0.928727431884942       0.924718205891085     
  0.920565300296951       0.916263459938735       0.911798789797943       0.907162311365581       0.902347575543405       0.897348058709905       0.892151179571429       0.886744178292937       0.881119396273373       0.875269072993293       0.869194358868469       0.862888030924004       0.856342147682694       0.849546700873274       0.842492833987350       0.835172066296658     
  0.827578022819921       0.819702276849042       0.811536560309925       0.803072484727499       0.794301197748311       0.785215033734904       0.775805069150035       0.765947159734520       0.755730176112025       0.745142664390940       0.734173911379620       0.722816850841954       0.711059047528581       0.698887778878494       0.686295692143220       0.673270920635876     
  0.659799432059048       0.645873705211407       0.631480107235348       0.616601800901160       0.601227509786742       0.585336436024719       0.568915928865802       0.551950341944826       0.535028748812982       0.518068979846275       0.501038762339334       0.483938179940945       0.466766863279228       0.448874944170516       0.431578798564267       0.414877051698681     
  0.398768180706274       0.383236385787052       0.368197058869783       0.353631958736296       0.339537127186887       0.325921507484475       0.312770169471090       0.300084242800511       0.287864735670082       0.276093400790198       0.264745215025788       0.253772695017714       0.243163240137264       0.232904469677175       0.222989135999768       0.213409148569279     
  0.204152824694764       0.195208918910259       0.186572828595108       0.178228284115060       0.170165587039569       0.162367711307861       0.154827815951276       0.147539502794520       0.140496665406658       0.133693082020926       0.127121847943092       0.120777385295431       0.114654477413229       0.108747808629876       0.103052836042593       9.756517903566862E-002
  9.228064594725979E-002  8.719574787132107E-002  8.230675044381305E-002  7.760989097971834E-002  7.318323754926552E-002  6.891982839700217E-002  6.482132505554195E-002  6.088597651888614E-002  5.711390429145684E-002  5.348308408622161E-002  5.000514545137882E-002  4.667798693220462E-002  4.348389030500631E-002  4.039369128131116E-002  3.740427798527840E-002  3.449284963394170E-002
  3.165975500520415E-002  2.891005984440836E-002  2.624660003280422E-002  2.367333647733605E-002  2.119638508261396E-002  1.882337453794365E-002  1.667251014016983E-002  1.460245146068429E-002  1.263284728820580E-002  1.078254357972023E-002  9.076210396001677E-003  7.449519224379228E-003  5.866540009585934E-003  4.429482748208032E-003  3.129757768675554E-003  2.005220790131447E-003
  1.115477177702655E-003  5.272983931632814E-004  2.537154511557105E-004  2.173250804709814E-004  5.041210775118259E-004  1.148369372010559E-003  2.101237302316868E-003  3.272930854962872E-003  4.592451156245404E-003  6.005555537655941E-003  7.711281860670153E-003  9.503860116218890E-003  1.139911095824624E-002  1.331071745467031E-002  1.526869158821458E-002  1.732128754731291E-002
  1.951938414961980E-002  2.182923432192990E-002  2.426077070425858E-002  2.675424528716389E-002  2.931725444603126E-002  3.199396360151020E-002  3.482405924821834E-002  3.780499990246117E-002  4.092628765688820E-002  4.417589192738045E-002  4.754293917015146E-002  5.101554094652251E-002  5.459028986979500E-002  5.826704672422717E-002  6.203845429612644E-002  6.626569502132824E-002
  7.063833936807752E-002  7.515380290183887E-002  7.980894588961636E-002  8.453492883835824E-002  8.940108514740698E-002  9.443373994349741E-002  9.963079600063304E-002  0.104994347275130       0.110514643265240       0.116211153443630       0.122124932566201       0.128305768197681       0.134766666887233       0.141510794304363       0.148534635374590       0.155839394413373     
  0.163428151427310       0.171301905844612       0.179464594984445       0.187919682002128       0.196671598601218       0.205905646748455       0.215479979896826       0.225400303741798       0.235675648819286       0.246314249943203       0.257323204802249       0.268712832695440       0.280493851449368       0.292673733840879       0.305263252442063       0.318274681383108     
  0.331715464413866       0.345595466434376       0.359928048386499       0.374713445865903       0.389962247796398       0.405680475152357       0.421853572204594       0.438491789596953       0.455537697642974       0.472982968894304       0.490501880821497       0.507888019451921       0.525139755516773       0.542259567925406       0.559251256737627       0.575797597683384     
  0.591875267729638       0.607464837561335       0.622565444030611       0.637179359366507       0.651270969287094       0.664851812499359       0.677937277967853       0.690545349963540       0.702696372450916       0.714441622972080       0.725822840706217       0.736848094204409       0.747525685717886       0.757857825041323       0.767852910195508       0.777519739571580     
  0.786867088865296       0.795817279683618       0.804439167203869       0.812737556993714       0.820718317691679       0.828386074715481       0.835745141235289       0.842802726301412       0.849621193458981       0.856230337459832       0.862633234387268       0.868833652849690       0.874835443430280       0.880642578032211       0.886258329669421       0.891685792003777     
  0.896928395729352       0.901990472310672       0.906879723678313       0.911600675495609       0.916157810946161       0.920362431297652       0.924451602257021       0.928423447453714       0.932280843632467       0.936008892011986       0.939604596414768       0.943074300152725       0.946410271941984       0.949616117509772       0.952707141014539       0.955659319599380     
  0.958479292242085       0.961223322920039       0.963888370378634       0.966472604085813       0.968974777499752       0.971394316358022       0.973732396103548       0.975990060626675       0.978170619279607       0.980277969104300       0.982264041736241       0.984195861059613       0.986058790909830       0.987857569711291       0.989596155338685       0.991275841685455     
  0.992892191751534       0.994446473667115       0.995941195812539       0.997432124302483      -1.015495380652872E-003 -8.317811562794859E-004 -9.424128106929447E-004  0.995587933934517       0.997030851399130       0.995581119560829       0.996827969800536      -2.426948040190093E-003 -3.826876273855947E-004  0.995267516271319       0.996047054404753      -2.016011025482845E-003
  0.994196497533519      -2.332160932564950E-003  0.993724798145947       0.992070694317233      -5.623612049634560E-004  0.992475607904136       0.993458582651452      -2.330481845176815E-003 -3.905009026409966E-003  0.994576575353890       0.994739406791197       0.998464793770625      -1.421718786975684E-003  3.544091913184445E-004  0.990725280184550       0.988955057480475     
  0.987180930175700       0.991570218890761       0.997775994152747       0.993063582317008       0.990858130319136       2.444455218492505E-004 -1.958594791143776E-003 -3.984435169989720E-003  0.992459318340694       0.997028208765866        1.00011295087353       0.997742218704498        1.00079228925779      -3.326269590368526E-003  1.366449440541384E-003  0.996160545806641     
  0.996546223656857       0.999107238862511       0.989130574229587       0.989740417290221       0.987889295132599       0.985975683377378       0.990587281032707       0.992366310743672       1.362648877322946E-003 -6.278917725512772E-004  4.060580743997650E-003   1.00190123640903       0.990119181771798      -5.339043969513031E-003  2.620551746975282E-003  0.990577421235079     
  0.987250187584154       0.988640081116106       2.630488573560756E-003 -4.026866849475124E-003  0.991319640416004       0.999521479352177       0.998981668965211       4.083333754091492E-003  0.988746789617389      -2.578430846843215E-003 -3.755564886783361E-003   1.00281065985340        1.00087820745210       0.994470493801784       0.998607870235732        1.00068353389132     
  0.993364271292980       7.414248426240912E-003 -2.388295286114486E-003  0.999249450364412       0.998398737543515       5.716541062682524E-003  0.985288381521068       0.983306111423386       0.991523585468789       0.997642629856515       0.986541821890426      -5.796325775624086E-003  0.987946876960897       9.080463604926868E-003 -5.326139955205834E-004  6.422452004970073E-004
 -5.346206904099805E-003  0.983880813646960        1.00308874278841       0.986760348022264       0.984554412860338       0.997432195386888       0.995398510133418      -1.512829465271500E-003   1.00367950717630        1.00555999860249        1.00141322540846       0.984399330249455       0.982154611398090        1.00051771820471       0.993830359833759       0.985759416591433     
 -4.768461720197324E-003  5.701677027289238E-003  1.932096820813866E-003  7.462208713732587E-003 -7.111580985492054E-003 -1.575802651836081E-003 -1.391963382727489E-004  5.595639036127056E-004  2.086854987374425E-003  0.994351774743431        1.00225825177354       0.995251171173777       0.987888414986353       0.992174240301610       0.981501566216708       0.979342868965160     
  0.982331752205623       3.787968056393125E-003 -5.549245409151539E-003 -7.412184313508391E-003  0.977191909951561       0.989354308236366       5.677852295003262E-003  0.985608710043875       0.990558457509424       0.993313595437024        1.00002625377848       0.999255343710799       3.515191426663301E-003   1.00501700991075        1.00398678600816       0.996198380344001     
  0.998152403068471       6.238966581599632E-003  0.999647245254230        1.00195153813087       1.085100992017806E-002   1.00256766870835        1.00651086368342        1.00425679358523        1.00685808027399       0.989699616155743       0.992855583907307       0.988679040799078       1.547816068527648E-003  7.468665680657620E-003  0.989644956027941       0.985532595781163     
  0.982874834431673       8.864916305773086E-003 -5.992063384696534E-003 -3.764846846736253E-003 -2.567151703713465E-003 -3.833373200620024E-003  0.990981368969570       0.992098239347035       0.980210611853956       0.978014251907380       0.975632310509782       1.133460730102718E-002  0.991684795332012       0.995641860814817       0.994617022457373       0.996731529455630     
  5.294255960794770E-003  1.330290029282272E-002  0.987288028808051       0.986983304461742        1.00287243417193       0.988923214861149       9.373643501115409E-003  0.986961768838338      -4.018554611222297E-003 -7.936732251936387E-003  0.981005363237027       0.979764144295960       1.283206642142673E-002  0.981550370907253       0.977275477645970      -5.980343834702940E-003
  0.985044712488002      -7.481839221576313E-003  1.088300535594159E-002  0.994218101218794      -2.834140983773018E-003  3.600353530754491E-003  0.974995008817577       1.131935541611071E-002 -3.551546075328538E-004  1.168567285881035E-003  1.531574175995394E-002 -9.815367197853909E-004  7.235891747675838E-003  0.978389131729040      -6.316095137639549E-003 -9.015647059727426E-003
  9.282900872424178E-003   1.00521545773034        1.00811121923991       0.979103327721013       0.976648651900535       0.973531371122620       0.984193092782357       0.982047824766301       0.993344750992510      -1.384372932926699E-003  1.325284351680396E-002 -9.743381653724613E-003  0.976360970049554       0.973996602254331       1.493584040623684E-002  4.904305968775224E-003
  8.629510257697159E-003  1.136339459936563E-002  0.972641095161503       0.970256651014651      -8.141830841782475E-003 -1.028943531493178E-002  3.415048892808125E-004  1.306055834901660E-002  0.983386241052084       0.980561408525537       0.982454927602967       0.979828696178433       0.980550042511276       0.980103106409489        1.00853817715584        1.00526678913739     
 -5.750793062994176E-003  9.590756303185784E-004   1.00179418804240        1.00103414809955       0.984459416571231        1.00389520646923        1.00354286289241       0.971502422568860       1.713188557673143E-002  0.981502022701301       0.982893954863636       1.101835436060249E-002  0.998319960694826       0.989219912734704       0.968927578609776      -3.690876108468388E-003
 -5.154314201366778E-003  0.985222879630443       0.995671432831353       1.529150990921164E-002  0.979152942406755       2.931473766150687E-003  1.745656508008064E-002  1.527957905968193E-002  0.973162334488804        1.00751260929192       0.978266762274853        1.00099484272351       0.999924591171625       0.977999188565014       0.997209657968013       1.336396820375423E-002
 -4.163323690774665E-003 -8.162711828321062E-003 -2.483011572392375E-003 -9.943287785154690E-003 -9.634297100806277E-003  3.364846590533170E-003  0.975290928468264       0.975554977664566       0.972977311391377       1.142387813913201E-002   1.00916276802686       0.970464733597925       0.967995672575123       7.058125232313447E-003  0.971357600695880       0.965505765622764     
  0.963265662137564       8.715438447953763E-003 -7.888693504123341E-003 -1.079748241775864E-002 -1.935898648525403E-003  1.974426149900542E-002  1.754313566027711E-002  0.996087293696028        1.00272351420829      -1.177653414957739E-002  0.982591085428476       0.979412443978490      -5.485985350307608E-004 -7.033405055148101E-003  1.515970053442227E-002   1.00163654184849     
 -1.044110818481651E-002 -1.278249737478410E-002  0.977341887727064       0.976861664328404       9.339881439704299E-003  9.954870372838162E-003  0.987261784754778        1.01063466532593       0.990162377388314       1.562152730083805E-002  2.318480999101233E-003  0.969147566282283       0.966652621296303       0.964015164227365       0.960952550325518       1.759492087423879E-002
  1.855225136104627E-004  0.970272463925456       1.373743087458964E-002  1.944592493101349E-002 -1.215316432092235E-002  0.993061726400277       0.994463982275255       0.997204547602105       7.000104597574078E-003 -6.505272695075694E-003   1.00584389686650        1.00580779564350       0.967432644781422      -5.490816797646410E-003 -4.895623118392155E-003  4.535525742878544E-003
  0.970533642282540       1.258250763432503E-002  0.998849216598160        1.00054064864347       2.213595269969758E-002  1.996517832614651E-002  1.762361188820981E-002 -3.672938393070305E-003  2.186922570862652E-002  0.974711822320682       0.971892379239453      -1.456093412051863E-002  0.987636278773912      -1.037014102452169E-002   1.01027062672052       1.568532633438606E-002
  9.128014567469084E-003  2.002271880313383E-002   1.00444403684706       0.967955239210753       0.965373921586719       0.995839179736956       0.962405638644511       2.454057473819612E-002  6.030851837739166E-003  2.246103367050688E-002   1.00843934778456       6.882685999255928E-003  4.182956146763887E-003  3.867370882816262E-003  1.800280749858665E-002  3.179198050420726E-003
 -8.615053794092168E-003  0.990136249838960       0.985147389115340       0.983131012428109       0.985546113189744       0.987583314934129       0.994783058449132       1.504917460295432E-002 -1.529244211171498E-003  0.966032905217406       2.063500770587405E-002  0.969231794879532       0.990645662280903       0.989661595633304       0.987308067634992       0.985098907158656     
  0.987991878255984       0.988929324517044      -1.221405850553927E-002 -3.126997789250693E-003   1.00002752550910       0.984264309751529       0.968127580092284       0.997723082323950       0.996503716277289       2.690168267763919E-002   1.00791629807134        1.00614676401740        1.00968085625882        1.01137561191129      -1.283920661798817E-002 -1.544398826057534E-002
 -8.244282669280387E-003  2.026062567497969E-002  1.773897073182651E-002  1.497828990373115E-002 -9.848933655342491E-003  0.990458437320085        1.00878731439884       6.053025103640423E-003  0.980268621294381      -6.941142067026212E-003  0.992135806827132       0.992841760747368       0.993996754012958       1.681862562956703E-003  0.972085433460812       1.292288640564778E-002
  1.250164857491045E-002  0.980729861223334       0.970468356757009       0.959091934043870       0.962901694977437       0.960021568259666        1.00394335970411       0.964545090891341       0.967572884535267       0.973450285382117       0.971773731595039       0.975432663761597       0.976347022978769       0.974734652983395       0.973104239185792       0.957042629894852     
  0.953767699381611      -5.044862790750293E-003 -1.260740020497558E-002   1.01187773055468        1.01308276671172       0.982205116155984       0.979639402450942       6.433173211357122E-003  5.831219174114457E-004  1.057517236175514E-003  7.434902120762167E-004 -6.139302653299439E-003   1.01116548807070        1.00686122610284      -1.018610196797212E-002  2.948237159418359E-002
  2.661715527630370E-002 -1.493696810574060E-002  9.606180871861863E-003 -1.529525865161750E-002 -1.822812209786321E-002  0.991810153861462       0.989908357053670      -1.243484914386067E-002 -1.517420005103965E-002  2.673519632952166E-002   1.01077941697927       1.226127708566394E-002  0.986295417403271       0.986884097729982        1.00284901473096        1.00884523669613     
   1.01171380112831       0.987507116098293       0.961718151695598       0.958775347896999       0.955549440329151       0.952022796292437      -2.680727552704849E-003  0.977690992103067       0.984730846788050       0.984146167960404       0.982435700935665        1.00898582429625       0.977314722021773      -1.208579665789201E-002  0.983904360324833       0.966894221233726     
  0.968810961091765       0.970161141506522       0.971333075951075        1.01087784522914        1.01145261226560      -8.561425855319219E-003 -1.786437346275471E-002  0.963311667799024       0.973703754996548       0.970782788554806       6.637543746386339E-003   1.00699122024996      -4.224920672166179E-003 -7.866590507993428E-003   1.01167805704053        1.00400177652902     
   1.00188151372441        1.01266889821711       2.311619029381116E-002  2.940749384639875E-002  2.669579292240299E-002 -9.244184760360716E-003  2.251803248042640E-002  2.431017854342023E-002  2.343201472716697E-002  0.977960234416686       0.976526412689043       3.636920182568374E-003  2.868727564935084E-003  0.998895757307198       9.584128260206349E-003   1.01375333510216     
  0.960779902174507       0.987476042372478       0.993196294302996       0.995047683952050       0.957514918481263      -1.186173774562108E-002 -1.505836008291929E-002  0.964403132898665       0.980037263785176      -1.505088995023859E-002  0.981112279027331       0.984327081647460       0.990696343963805        1.00628420641488       0.972796911006765       0.968970668222183     
  0.965907151089280       0.963622615667116       0.967591874106727        1.01312440049118      -7.376520670489150E-003 -1.089922909001086E-002  1.204945575552442E-002  2.472408397095049E-002  2.065827096522175E-002  1.786763623900725E-002  3.225493943808072E-002  2.979586703405062E-002  2.834002415870104E-002   1.00483887774755       1.489525810392578E-002 -1.656770165209344E-003
 -1.646271699424106E-003   1.01396209872733        1.01627113318520      -1.517006154698033E-002  0.954403563451303       0.951284033134207       3.232957196837040E-002  3.005235367423624E-002  2.780302086632873E-002 -1.244142925802193E-002   1.01363584459958        1.01732984312811       0.975231169621470       0.969789656125993      -5.309529502028708E-003  9.345862452823983E-003
  6.785496702468323E-003 -1.824915745696289E-002   1.01388303255304        1.01498105484619       2.475397264013223E-002  2.135388551633920E-002  0.965712514951261       0.967233604105073       0.968730290954567       0.968916967771313       0.997611517056852        1.00534764777910        1.00807918407960        1.00388412594427      -1.037976018371513E-002 -1.290055861922676E-002
 -1.506749866995115E-002  0.948096202411360      -1.067028173251324E-002 -1.407590063201455E-002  0.975135106940773       0.955893817350059        1.00884530161347        1.01168471001247       0.980946409596740      -1.398242172773940E-002  0.991056472637874      -1.763627751558520E-002 -2.091872697840656E-002  3.524289643701704E-002  3.306592020449776E-002  3.093180017258320E-002
  2.896124247416082E-002  0.972191804357157       0.974992433123814        1.00080662090185       0.999562607066630       2.400673421690693E-002   1.00700303788547       5.141171479020361E-004  6.437185115476423E-003  3.585669142513895E-003  0.966506122267196       0.968887739993883       0.978148006646052       2.452290971191725E-002  1.839331961480624E-002  1.574279200061742E-002
  0.999570409821914        1.00210988851090       0.998653339767581        1.00577045568419        1.01443824362896        1.01464060904157       1.281387546363453E-002   1.00336711199150       3.517320791972912E-002  3.226760275012185E-002  0.952838299511756       0.949577174276258        1.00519829835251       0.946003898916005       3.817263845240969E-002  3.593862933300906E-002
  3.382305080302635E-002   1.00883124423216       0.960648154214809       0.957157474439552       1.888595380455076E-002  0.962281201447293       0.984771251789098       0.976795138107579      -1.667028854960881E-002  0.965408407307408       2.101293092703757E-002  1.796581613173884E-002  0.963991518634901       0.965986542397739       3.709021872219427E-004 -6.825911258547216E-003
 -1.386003728280089E-002  9.823486637282343E-003  0.963703322082571       0.961501738399737       0.967830197333559      -1.748663747093058E-002  9.048721199481784E-003  0.954357696890513       1.477584893409624E-002  2.216975279514329E-002  2.558067269581520E-002 -1.237344757128536E-002 -1.530964491857482E-002 -1.375335860904583E-002 -1.707944505744874E-002 -1.746850751400243E-002
  0.954374425214904       0.958554359841051      -2.152733996179867E-002  4.120521631501703E-002  3.879844950832072E-002  3.645377812787724E-002  3.466743326783829E-002  6.784737233986625E-003   1.01221405441804        1.01678751294642        1.01873965753882        1.00956766097117        1.01647520375047       0.971579520094861       0.974977281417204       0.960354846419614     
 -1.979353589503497E-003  3.833304748777253E-002  3.554553829026203E-002  3.249669957782303E-002  0.951501694847320       0.947726341351991       2.441706527843707E-002  0.996540778561182       4.255052599867042E-003  3.928870804035364E-003 -1.792355547568679E-002 -1.573848233166898E-002 -1.760895103813281E-002  0.962340985139469       0.958439986135875       0.977890637567015     
  6.331604732866482E-003  4.202928749103640E-003  1.310842999708524E-002  1.175023432618508E-002  0.943170947361797       0.948460012889686      -1.823209818535038E-002 -1.814224757755559E-002 -1.747987147286981E-002 -2.126801743664251E-002  0.964659036319993       4.439544598737352E-002  4.193981655242705E-002  3.900482590138061E-002  1.951938240096655E-002  0.954127980494867     
  0.957542071597120       0.959710370384498       0.950596991434158       0.956281920818433       0.952730532000955       0.949125067845154       8.372675130803801E-003 -1.227975995971554E-002  0.997573008939457       0.974137037638327       0.972924830417711      -2.025933447783689E-002 -2.022074546155347E-002  0.970586406179377       1.610468135180507E-002  1.346824840534497E-003
  0.981267201938933       0.984311265777637       1.658717413454162E-002  2.126725228286911E-002  1.805165735561145E-002  1.466721635639829E-002  4.159686878885901E-002  3.893320979510161E-002  0.978599996227639       0.973402564098480       9.966516180711009E-003  6.662318305264191E-003  0.945018704526878       0.941528184264552       8.706225325482761E-004  1.135512277876046E-002
   1.01402283123483       0.960554787124195       0.956425478591555      -1.921813441017362E-002 -2.145748140781419E-002  0.937938946589375       0.934298807550762       2.310418561926037E-002  0.947068348159135       3.605405137139128E-002  3.284900101957165E-002  2.688643933887466E-002  4.770967514824148E-002  4.531663375482973E-002  4.286625879988515E-002  4.079765166895349E-002
 -8.948135820016179E-005  0.987515329995508       0.990743701977355       0.954961038319710       3.660963111957273E-003 -2.027556465452465E-003   1.01402442777298       2.474916875983927E-002  4.490476628738535E-002  4.228346116622158E-002  3.974883127072844E-002  2.026445504232982E-002  7.545238894820845E-003  1.343501262996404E-002  0.943563830402544       0.939982677325533     
  0.942197778666936       0.987482080630614       0.993935158808681       0.994007749269931       0.945247166782530      -2.291122187856999E-003  0.958560009730199       0.951224294939848       0.947460491673257       0.988451878814249       0.992141679754561       0.938102800758614        1.01058287147239       0.990754572888508       0.934302735214015       0.956445339787966     
  0.954434344292078       0.952287462581158       0.971474306336590       0.945615210119641       0.957404895165077       1.008674350284728E-002  6.486097346902894E-003   1.01632274648450        1.01490107724544        1.01633382394369        1.01856784704453       7.514523226401320E-004 -1.479530861243513E-003  1.101251041911325E-002  4.829052732743554E-002  4.551196953393371E-002
  4.295036116424229E-002  4.145952272028833E-002  0.950087772834118       0.945971122661623       0.930296100738181       2.154255651731797E-002  1.818820809882606E-002  2.725240979090945E-002  0.989395143452932       0.978127140987164       0.982006152960797       0.985742712563978       0.974839085031726       0.974829782054716       5.112924971300707E-002  4.869818619122420E-002
  4.623672644198011E-002  4.386556101874228E-002  4.078966908611253E-002  0.953485519968794       0.955887321120636       1.466280392060431E-002  1.713740759687106E-002  0.961428523486917       0.993069601228532       0.963952200977095       0.959938913820262       0.966504492167476       0.939719616481408       0.997939355441645        1.00093809060478       0.994148893391488     
  0.942176392185067       0.938493591809170        1.00182703869807       0.948456412472895       1.379545542694134E-002   1.01750509562673       2.888230376996809E-002  3.080238794822833E-003  0.936238514964792       0.952403046379197        1.00025911534106        1.00299688735282        1.00612533608094       0.967235813797074       0.944575395527535       0.949514799139635     
  0.944965522998148       6.987769822077621E-003  5.183162368902894E-002  4.890526151840291E-002  4.569260597070383E-002 -8.953443278924916E-003 -1.205470080168503E-002 -1.546396832553312E-002 -5.222820647894614E-003 -7.583743864275310E-003 -3.257688746691231E-003  0.987349049107147       0.979278106263422       0.999278306989637       0.944275860431475       0.936311108039920     
  0.932291872472099       2.529046088576255E-002  2.923701732405415E-002  2.420644805615437E-002  0.996836899147189       0.998183907181867       0.990724651382583        1.01784772586868        1.01993435520778       0.990211775978258       0.995734615998918       0.996858326459276       0.993989682720269       0.984129499292138       0.962879132456584       1.023536792501855E-002
  6.405564650249045E-003  0.934456357910566       0.950491692754605       0.948156275351832       3.182623980940365E-002  3.073542357621048E-002  2.876248961729036E-002  0.941733219529723       0.947086002135352       0.943669389207518       5.467739077525363E-002  5.216967333007719E-002  4.957538785943055E-002  0.983081454578418       0.986636940351161       0.987136807250666     