 VARIABLES = "X" "Y" "RO" "U" "V" "P" "M"
 ZONE T="  0.000000000000000E+000 " N=        9944  E=       19548
 ZONETYPE=FETRIANGLE DATAPACKING=BLOCK
 VARLOCATION=([3-7]=CELLCENTERED)
  -19.9782054645671       -16.7460447536127       -13.5432470514743       -10.4462771124608       -7.39483127129757       -4.39431260318683       -1.43672854734527        1.47853524247441        4.40194279230921        7.38347804238703        10.4122197804982        13.5308676756442        16.7310607632789        20.0189460056259        20.0156650185539        20.0123451374732     
   20.0090067226427        20.0056742799471        20.0022854763303        19.9988742323503        19.9954939648514        19.9920871178897        19.9886881104951        19.9853470049941        19.9820070605281        19.9783478910574        16.7317203104092        13.4557822172063        10.1645634122701        6.87452312340184        3.53259687976399       0.170578499054329     
  -3.16443525887912       -6.48474521199279       -9.79114624567630       -13.0836966857758       -16.3754018560739       -20.0188035791356       -20.0155069002833       -20.0121812769038       -20.0088400757232       -20.0054989473046       -20.0021446450312       -19.9987763328347       -19.9953939522161       -19.9920253568386       -19.9886729196427       -19.9853365630757     
  -19.9819979716434       0.999849194771036       0.998333468732405       0.996822109662290       0.995320939829185       0.993775191155241       0.992168533305021       0.990496117700345       0.988762415817139       0.986967306984784       0.985108459705058       0.983171874194393       0.981166081792102       0.979074895713523       0.976910984237509       0.974670488082842     
  0.972345997510699       0.969934958010317       0.967436544037475       0.964848433934925       0.962170984782111       0.959399214478440       0.956525312189794       0.953538160340645       0.950428339554834       0.947224562187988       0.943905156340506       0.940437551259015       0.936864115491792       0.933172725333598       0.929341906946992       0.925336732861823     
  0.921187829347805       0.916889928799359       0.912429128796169       0.907796435402414       0.902985378888889       0.897989412147257       0.892795931249692       0.887392149520950       0.881770374625409       0.875922809473367       0.869850562060185       0.863546369962856       0.857002251297283       0.850208157146403       0.843155189935361       0.835834828829861     
  0.828240660980778       0.820364225409217       0.812197224220965       0.803731244735367       0.794957417038945       0.785868066229650       0.776454268200028       0.766591832494705       0.756369686820777       0.745776408737370       0.734801330390882       0.723437447488227       0.711672398545112       0.699493549731061       0.686893655701847       0.673860969371848     
  0.660381591153827       0.646448149626221       0.632047169702402       0.617161980240056       0.601781480783019       0.585885049625847       0.569460215651456       0.552491506087683       0.535568193189303       0.518608101101143       0.501578946353395       0.484480781028286       0.467313179862738       0.449426403510690       0.432136342536164       0.415441381151581     
  0.399339772197486       0.383815518807096       0.368783874929374       0.354226452232605       0.340139156247558       0.326530804569234       0.313386371385411       0.300706898687531       0.288493323122467       0.276727349707155       0.265383922009880       0.254415539966598       0.243809577668433       0.233553635755838       0.223640452613404       0.214061929799167     
  0.204806381920916       0.195862564079724       0.187225877554127       0.178880058481719       0.170815415656171       0.163014928632052       0.155471764700052       0.148179535358725       0.141132145061414       0.134323383670042       0.127746357985567       0.121395502941984       0.115265615435461       0.109351393533442       0.103648309293400       9.815199769627317E-002
  9.285828337315361E-002  8.776369549105435E-002  8.286451803250364E-002  7.815700720169751E-002  7.371946020208453E-002  6.944470053288626E-002  6.533441515230687E-002  6.138687177670955E-002  5.760221862040801E-002  5.395837941885177E-002  5.046704594158886E-002  4.712613603107991E-002  4.391788047273882E-002  4.081298856448431E-002  3.780832047931759E-002  3.488092881606596E-002
  3.203111473538729E-002  2.926391831805183E-002  2.658213221798499E-002  2.398967536766996E-002  2.149263318067254E-002  1.909861563745600E-002  1.692693396472584E-002  1.483491236430252E-002  1.284226177903581E-002  1.096792479712998E-002  9.236821615599040E-003  7.583467513839853E-003  5.970642856272388E-003  4.501679736650753E-003  3.166926088036987E-003  2.003796718305266E-003
  1.072114675161916E-003  4.407249900029405E-004  1.272596459119589E-004  5.026840965455248E-005  2.841477556102297E-004  8.759425043703250E-004  1.778400595319395E-003  2.903420661398325E-003  4.180094225466688E-003  5.553950968493123E-003  7.218201503290469E-003  8.972001982205416E-003  1.083014211960813E-002  1.270740286720090E-002  1.463273929211157E-002  1.665336816700952E-002
  1.881934800234900E-002  2.109743195685169E-002  2.349739634673472E-002  2.596020673846103E-002  2.849326857148055E-002  3.114019662863608E-002  3.394027466499375E-002  3.689105199777405E-002  3.998218648756746E-002  4.320179536849533E-002  4.653912205937871E-002  4.998238742284498E-002  5.352821105433972E-002  5.717645392343606E-002  6.091981384606449E-002  6.511695053171282E-002
  6.945982660324457E-002  7.394590472514752E-002  7.857209273811717E-002  8.326997732995757E-002  8.810847984417246E-002  9.311381474966456E-002  9.828394366496508E-002  0.103620996152516       0.109115312789584       0.114786316914714       0.120674944468912       0.126830864879967       0.133267144348114       0.139987051275293       0.146987195270310       0.154268885315992     
  0.161835299285804       0.169687540075433       0.177829639744562       0.186265158070608       0.194998621842168       0.204215103427973       0.213773197798667       0.223678727361483       0.233940837194545       0.244567881908141       0.255567083729164       0.266948887627436       0.278724142681409       0.290900459818114       0.303488753806237       0.316501448332778     
  0.329946143619588       0.343832868179908       0.358175157703745       0.372973421910802       0.388238438778723       0.403976424083742       0.420172994354260       0.436838609659020       0.453915931883412       0.471396789871236       0.488954873328620       0.506383230236202       0.523680093965393       0.540847818298246       0.557890082684345       0.574488503386299     
  0.590619385006718       0.606262932996104       0.621417985262402       0.636086537389096       0.650232563061845       0.663867376802756       0.677006180531863       0.689666805026705       0.701869473784412       0.713665501276902       0.725096650212689       0.736170885089091       0.746896419189000       0.757275359407659       0.767316041837386       0.777027217875268     
  0.786417628599644       0.795409172844229       0.804070970489966       0.812407807699402       0.820425548112245       0.828128814850809       0.835521924748401       0.842612110210550       0.849462017352929       0.856101575768354       0.862533875894963       0.868762706257099       0.874791939468018       0.880625571160954       0.886266895504837       0.891719026656530     
  0.896985417090881       0.902070423557945       0.906981787677202       0.911724059405868       0.916301744988338       0.920525298485112       0.924632855577252       0.928622530976464       0.932497213221249       0.936241935293933       0.939853686075102       0.943338835490452       0.946689616262834       0.949909648905262       0.953014304108066       0.955979452648953     
  0.958811763399028       0.961567746217013       0.964244345324348       0.966839721628906       0.969352623263642       0.971782474238338       0.974130456358158       0.976397619838831       0.978587290297929       0.980703383674825       0.982697637323256       0.984637356027804       0.986507846672088       0.988313870625262       0.990059405344081       0.991745753573589     
  0.993368464780033       0.994928816485267       0.996429331239537       0.997925993164058      -1.163934319043388E-003 -9.417229192208203E-004 -1.132941793504365E-003  0.996098809510216       0.997539220821065       0.996093365862464       0.997314947320190      -2.595731662491608E-003 -4.531793302256458E-004  0.995749604342624       0.996528223728677      -2.111600714185733E-003
  0.994710340269802      -2.465063774601322E-003  0.994202013731542       0.992541738252954      -8.034484126173851E-004  0.992993282456273       0.993975293608919      -2.539831441812116E-003 -4.059408942793319E-003  0.995054352061221       0.995213385911155       0.998955818243583      -1.478448849763747E-003  3.244350943368534E-004  0.991246544598053       0.989479834502044     
  0.987709228017260       0.992090441840765       0.998261398063115       0.993536071822233       0.991322298590592      -5.129270809778007E-005 -2.228331271765796E-003 -4.169185250836475E-003  0.992978701106143       0.997507545128220        1.00060592633750       0.998250791220563        1.00129015352450      -3.408412161958220E-003  1.376059907003675E-003  0.996631925889395     
  0.997058588980510       0.999611240819340       0.989590565425573       0.990263870908652       0.988415989724038       0.986505750157909       0.991053148184537       0.992831221070938       1.020889111717542E-003 -9.455688209516460E-004  3.633765506909784E-003   1.00239336975640       0.990575786516889      -5.508864308073669E-003  2.667611923518200E-003  0.991099882560313     
  0.987702327311345       0.989094936792558       2.245409520793188E-003 -4.252915033523003E-003  0.991841400852038        1.00002764300290       0.999465115456442       4.165605283374093E-003  0.989271954561503      -2.622171867230671E-003 -3.875437425899219E-003   1.00330587165373        1.00136525117478       0.994986468206424       0.999116879933427        1.00118951401318     
  0.993882854413382       7.558692232234258E-003 -2.691634102784319E-003  0.999737562745735       0.998875343493482       5.831996993239333E-003  0.985732752710970       0.983742606204049       0.991980818609116       0.998111526751079       0.986989061175491      -5.994351349844255E-003  0.988396382844602       9.247475412848066E-003 -5.501860790524251E-004  6.629347730892461E-004
 -5.452836646588724E-003  0.984414999100715        1.00357632121265       0.987288883560241       0.985087152799239       0.997944951963117       0.995914064635849      -1.518595350865296E-003   1.00417085223522        1.00604788950627        1.00191492978709       0.984838817802407       0.982586016519583        1.00099836504167       0.994294835000851       0.986201840330527     
 -4.837043446307667E-003  5.830662875876468E-003  1.531020422792525E-003  7.615209506000255E-003 -7.204192201283975E-003 -1.909047332246126E-003 -1.077933856471919E-004  2.009810976705961E-004  2.144555931562602E-003  0.994869642029532        1.00274158035205       0.995714417124468       0.988415118899209       0.992695233649268       0.982040869896162       0.979885973561336     
  0.982869275761904       3.881831937081251E-003 -5.692930646242206E-003 -7.583679626246851E-003  0.977738950629266       0.989804990024457       5.210156021801749E-003  0.986139743957666       0.991009364830678       0.993834040700921        1.00049976920180       0.999721468080141       3.072172409006505E-003   1.00551020333970        1.00448490338254       0.996713893822450     
  0.998665958670763       6.386319536843202E-003   1.00015648517332        1.00245739167820       1.104244723371525E-002   1.00304517867528        1.00700642036485        1.00473943438426        1.00733947207085       0.990224143508395       0.993312567638565       0.989125841991200       1.616141405400192E-003  6.960392454482684E-003  0.990169002740306       0.986063660497835     
  0.983411257514342       9.037831643896269E-003 -6.232166978857076E-003 -4.074128883013432E-003 -2.561723592200342E-003 -3.864401633286722E-003  0.991505116065079       0.992621388865007       0.980751523303520       0.978558766185775       0.976181055773898       1.075196356025322E-002  0.992135087485785       0.996159170943572       0.995136923241737       0.997192799786547     
  4.809829643791528E-003  1.268874171107717E-002  0.987733117584790       0.987424639080809        1.00337527049022       0.989449694569887       8.826666190065804E-003  0.987490867959167      -4.293120639999804E-003 -8.150460938759844E-003  0.981544825650561       0.980186067360711       1.304808056516974E-002  0.981980705190055       0.977686796289273      -6.260315616824750E-003
  0.985482013585263      -7.612773113966112E-003  1.108256474270193E-002  0.994673940872395      -3.183652948152782E-003  3.706376355326787E-003  0.975397369676531       1.072321426712800E-002 -7.302746810427448E-004  7.508353970327214E-004  1.467143577157246E-002 -9.401489252078489E-004  6.711034225590624E-003  0.978802933188016      -6.370569047765987E-003 -9.092215734564184E-003
  8.719784476738891E-003   1.00571596341912        1.00860884395976       0.979645271369536       0.977194511524770       0.974083867960818       0.984727042904952       0.982585321545889       0.993867356907846      -1.776453292140862E-003  1.263025492558793E-002 -9.900080117025261E-003  0.976767639838264       0.974393840200791       1.517452015334077E-002  4.402710100359343E-003
  8.811048059189051E-003  1.075676860126935E-002  0.973033693628638       0.970639263290269      -8.394049298632753E-003 -1.051663029107134E-002 -9.289880442973534E-005  1.328424030616370E-002  0.983820117195124       0.980982994768954       0.982881301089646       0.980244237780284       0.981089748394515       0.980643423166191        1.00902361737856        1.00574372815053     
 -6.070784322773167E-003  1.037706771959157E-003   1.00226447808780        1.00149722945908       0.984889239553906        1.00439875612303        1.00404863208513       0.971889689367304       1.739156328174535E-002  0.981921289229980       0.983315875082943       1.122709618733600E-002  0.998778771964464       0.989665118676674       0.969305141599541      -3.674873000064136E-003
 -5.172931351227304E-003  0.985755019052208       0.996125370858735       1.553616834214549E-002  0.979564460973606       2.471545469885800E-003  1.678063150667485E-002  1.462696727077397E-002  0.973716143925226        1.00800338995425       0.978809605621998        1.00150401237119        1.00043743201296       0.978410030097860       0.997726249149365       1.359522996874919E-002
 -4.529933104158237E-003 -8.451182166816158E-003 -2.891176275244465E-003 -1.013375770150171E-002 -9.752559206824551E-003  3.483922712838971E-003  0.975841152884640       0.975956773979147       0.973369120977918       1.164240879168248E-002   1.00965577901936       0.971023397402070       0.968558146781344       6.516099672632996E-003  0.971914438407109       0.966072122969287     
  0.963835134471975       8.906598172818865E-003 -7.928971854412482E-003 -1.085716430924001E-002 -1.885183196882858E-003  1.903614783109333E-002  1.685832110755454E-002  0.996606524621407        1.00323276272057      -1.195118432578470E-002  0.983127408613232       0.979954154501788      -9.993247636231166E-004 -7.375708540430243E-003  1.449773353717696E-002   1.00214907312572     
 -1.070503464702074E-002 -1.302301171584275E-002  0.977748636553610       0.977262770374981       8.759530385445065E-003  9.352938975628155E-003  0.987698302848064        1.01112911445912       0.990604462556266       1.587058607377280E-002  1.841485890978555E-003  0.969707407691093       0.967215999087504       0.964582311801346       0.961524772006422       1.785941129697878E-002
  2.762336535347023E-004  0.970654021260036       1.397453347241303E-002  1.972614233401193E-002 -1.229882590162377E-002  0.993510399036782       0.994910937551588       0.997656266159217       6.441045359654425E-003 -6.512039260836605E-003   1.00634647138706        1.00631339177714       0.967802955855097      -5.873357937634109E-003 -4.869156287816541E-003  4.016574636064697E-003
  0.971091081197403       1.281320354213616E-002  0.999365076279538        1.00105603297617       2.139641364140118E-002  1.924833079516349E-002  1.692974399362206E-002 -4.096062660349263E-003  2.216963290468062E-002  0.975108078096681       0.972278288780780      -1.473686878644270E-002  0.988068136956468      -1.066658484684547E-002   1.01075916126285       1.593774180483712E-002
  9.328324145226545E-003  2.030776036819996E-002   1.00495318010761       0.968515961792777       0.965937693847307       0.996283741962997       0.962973992126258       2.377268736266365E-002  6.189292053463034E-003  2.171363489420156E-002   1.00894056049410       6.306200010470341E-003  3.645867919295271E-003  3.311517891258695E-003  1.827184934353319E-002  3.310833781702356E-003
 -8.975594816766005E-003  0.990572747959305       0.985574475234597       0.983550926761772       0.985971305060402       0.988010808733483       0.995305011937564       1.437799419059185E-002 -1.996922088786474E-003  0.966398889204066       2.092480716589899E-002  0.969790251610540       0.991171584910450       0.990187823646457       0.987837197707913       0.985631746064564     
  0.988520995912169       0.989458387893057      -1.231443911621057E-002 -3.066919591800924E-003   1.00048361320539       0.984681467147576       0.968502491966416       0.998241550365882       0.997024869485324       2.610802015898789E-002   1.00839250835854        1.00661894620350        1.01016117757752        1.01185946747943      -1.311482191119993E-002 -1.569907010017619E-002
 -8.557969829315022E-003  1.953541940041804E-002  1.703664920930113E-002  1.429863294654219E-002 -1.017328097959124E-002  0.990889318012529        1.00929120345738       6.223516566551589E-003  0.980681195028372      -7.338733730545466E-003  0.992578920527087       0.993281980007389       0.994431552548628       1.187096839261197E-003  0.972639707540624       1.229304282568104E-002
  1.186223017509400E-002  0.981137723466678       0.971024166570775       0.959666086750629       0.963252721869546       0.960360631279274        1.00441630581709       0.964902325940202       0.968132441773080       0.974001394030635       0.972327118235086       0.975980156674739       0.976893120024447       0.975283522472128       0.973655870075464       0.957369070168813     
  0.954080121864194      -5.481856673323732E-003 -1.291286849300448E-002   1.01236899973106        1.01357658768289       0.982742011232270       0.980180720904738       6.614961209180494E-003  6.919039366825137E-004  5.422022129413333E-004  2.072164210681404E-004 -6.102387852025209E-003   1.01166588683444        1.00736789550113      -1.056331486789659E-002  2.865600073035620E-002
  2.582345589445382E-002 -1.506647767932045E-002  8.991025612105252E-003 -1.558407077179403E-002 -1.850091682815272E-002  0.992335716478691       0.990437203807254      -1.263779828138123E-002 -1.539098697735220E-002  2.706870380504904E-002   1.01125478738272       1.161288566812386E-002  0.986827759585951       0.987416295800938        1.00330891735598        1.00931656475570     
   1.01218430456558       0.988039415468348       0.962064152366257       0.959109130547651       0.955869846511661       0.952328331695639      -3.171060951616405E-003  0.978089914829754       0.985265104606352       0.984680751277336       0.982972422577611        1.00949156651017       0.977859725810148      -1.242746464930986E-002  0.984440217542598       0.967455360738222     
  0.969368212600221       0.970716442094402       0.971886777594613        1.01137506532598        1.01195524555181      -8.972527298579905E-003 -1.802084699050103E-002  0.963663074009555       0.974093732630051       0.971162599224109       6.044603968456013E-003   1.00745832899491      -4.157032127146642E-003 -7.862096928235607E-003   1.01218272903880        1.00446890247210     
   1.00233473599771        1.01314837089530       2.236059868435958E-002  2.976076812919209E-002  2.702672098998869E-002 -9.229112121069329E-003  2.282264018932961E-002  2.462835024451399E-002  2.374101855662940E-002  0.978356139619625       0.977073158359830       3.063534637065679E-003  3.016623468379877E-003  0.999344812530252       9.791699587929217E-003   1.01425047658932     
  0.961121100440636       0.987896450731472       0.993721384360769       0.995572216285330       0.958092958846269      -1.225196229635543E-002 -1.515871918991438E-002  0.964967066024732       0.980578368468590      -1.536523799104578E-002  0.981514802583167       0.984735292733576       0.991119615815294        1.00679298560844       0.973181636141630       0.969345549543076     
  0.966269019085765       0.963972701715045       0.967959394902904        1.01361101578868      -7.329433680373638E-003 -1.091490413811656E-002  1.139256746462641E-002  2.395389326547165E-002  1.992482036682257E-002  1.715649112200424E-002  3.139944969764959E-002  2.896293699030166E-002  2.752059553319116E-002   1.00529589217253       1.420645054966700E-002 -1.570896684530417E-003
 -1.543953272444154E-003   1.01444488325071        1.01675565742876      -1.551152639271858E-002  0.954985903315931       0.951870505001503       3.270126548684444E-002  3.040782589844185E-002  2.814202299695157E-002 -1.244600587144126E-002   1.01413581705385        1.01782656991882       0.975623646599061       0.970162714415542      -5.235689510493170E-003  8.719837295044462E-003
  6.974968780678007E-003 -1.847929053221338E-002   1.01435722874586        1.01545051047595       2.507257908401555E-002  2.164826152699739E-002  0.966273662491364       0.967792239209204       0.969287033490888       0.969473411191242       0.998052762187539        1.00581020601320        1.00854077863114        1.00433427412180      -1.080405781985253E-002 -1.326546298924580E-002
 -1.543780719004543E-002  0.948687026371053      -1.064641624590355E-002 -1.406958337020230E-002  0.975524703935278       0.956472889240630        1.00935295244332        1.01219101805053       0.981487392488832      -1.401614450046133E-002  0.991585344977135      -1.775110690786891E-002 -2.105705057382097E-002  3.563044411951616E-002  3.343834395606533E-002  3.129024991704928E-002
  2.930698622495983E-002  0.972570495701215       0.975377444844662        1.00125282402655        1.00000090098551       2.323959741203950E-002   1.00745600827460      -3.902021685011254E-005  5.830168219574107E-003  2.995241256945882E-003  0.966865208990634       0.969253176377479       0.978539762588783       2.483818323274824E-002  1.866694002777202E-002  1.599876709057169E-002
   1.00008817201000        1.00262513231735       0.999173891318316        1.00621816126044        1.01493974086943        1.01514433472979       1.304893329984892E-002   1.00387959904582       3.428719879542293E-002  3.141001276777053E-002  0.953421167540760       0.950164321277692        1.00571110597585       0.946595728746449       3.857479439800377E-002  3.632529031802133E-002
  3.419605470330100E-002   1.00927971899358       0.961218467600683       0.957733502345730       1.916396139016286E-002  0.962847560454611       0.985307668207808       0.977342229237543      -1.675508148551358E-002  0.965760462760026       2.026887095483908E-002  1.724403472452461E-002  0.964554530008977       0.966546556893769      -1.982764698234845E-004 -7.274615475335041E-003
 -1.426682617887308E-002  1.003791455862291E-002  0.964050929557103       0.961840206593145       0.968187156625340      -1.768168665722786E-002  8.414074419998422E-003  0.954937723266119       1.407592401525382E-002  2.246960894680344E-002  2.590375196670256E-002 -1.241925129637074E-002 -1.537030326227536E-002 -1.382911387752124E-002 -1.712900114066327E-002 -1.778668667387605E-002
  0.954952873368804       0.959126433266935      -2.177642522280548E-002  4.162226415727268E-002  3.919840837874291E-002  3.683985311742810E-002  3.504150882401907E-002  6.981015843802738E-003   1.01267821860269        1.01726011314189        1.01920832228911        1.01003512052705        1.01693826615060       0.971950787305484       0.975356420489816       0.960923152722440     
 -2.501374527651339E-003  3.741568228549603E-002  3.465580157935957E-002  3.163679566795888E-002  0.952084886788725       0.948314051129670       2.363560066552367E-002  0.996974832681624       4.425968621682189E-003  4.103433870196285E-003 -1.799305140789733E-002 -1.576031368495185E-002 -1.761945975531937E-002  0.962906036942316       0.959010357521543       0.978434167502828     
  5.713930823444985E-003  3.590760977249115E-003  1.334853621677404E-002  1.108412475644802E-002  0.943764792328645       0.948748532190741      -1.857361798722942E-002 -1.852640152565516E-002 -1.778064949528379E-002 -2.156503793072388E-002  0.965221099488877       4.482742932388490E-002  4.235594201474836E-002  3.940290910400194E-002  1.980214957482052E-002  0.954441772028949     
  0.957869981576535       0.960045340018201       0.950895236100039       0.956603410484027       0.953037142953047       0.949416191949908       7.729995833543386E-003 -1.225157753710033E-002  0.998000731184282       0.974687601287291       0.973476427928523      -2.032434263682045E-002 -2.031578640989050E-002  0.970947882470008       1.636439888315019E-002  1.498742793840262E-003
  0.981664014396557       0.984712623255526       1.685164965073868E-002  2.051100051529978E-002  1.731761047085029E-002  1.395407823676045E-002  4.064898813922949E-002  3.801065849766096E-002  0.978988746011761       0.973767976407376       1.018746487956699E-002  6.865136826341317E-003  0.945292289271533       0.941786782842518       1.029160242008235E-003  1.067710718920961E-002
   1.01452925710973       0.961122035080221       0.956997888199926      -1.925582658525969E-002 -2.148242024221880E-002  0.938181770881321       0.934525359565047       2.341017844116967E-002  0.947350961965341       3.515988915912414E-002  3.198652081323052E-002  2.721661104642011E-002  4.815542380795013E-002  4.574711884660695E-002  4.328225989353157E-002  4.120180266572605E-002
 -6.716589805969402E-004  0.987927737670192       0.991159295189616       0.955275451780422       3.840447360025245E-003 -1.901221833601976E-003   1.01448254310698       2.395801185370946E-002  4.392850078006483E-002  4.133098211527431E-002  3.881851446073334E-002  2.055247109446579E-002  6.890113826635671E-003  1.368092018357797E-002  0.943831947176532       0.940235878523513     
  0.942795175283286       0.987887204195394       0.994361115436362       0.994425565080537       0.945841432252605      -2.148652855306156E-003  0.958889354543901       0.951523613946592       0.947744368905483       0.988984652263039       0.992670973687918       0.938705181055111        1.01103877891524       0.991162873342164       0.934909257244558       0.957019211273641     
  0.955010072611944       0.952864859100956       0.972027486253213       0.945891724939340       0.957726415326627       1.031461134721529E-002  6.696582022782479E-003   1.01680096410080        1.01539066506389        1.01682651619241        1.01905549013164       9.174551063292780E-004 -1.319265866269294E-003  1.032022600432448E-002  4.728630643932421E-002  4.453469615090773E-002
  4.199335017303949E-002  4.051629386300619E-002  0.950671295463719       0.946559073356652       0.930907019864793       2.077461542672109E-002  1.744077734171523E-002  2.644039895680343E-002  0.989928412966051       0.978672503800038       0.982546676552647       0.986279351976856       0.975388500455936       0.975379065577029       5.158818749949502E-002  4.914158249485426E-002
  4.666596723970647E-002  4.428212581351924E-002  4.118741875268516E-002  0.953792333110558       0.956200721598949       1.393510795192848E-002  1.740739757063773E-002  0.961768871916057       0.993599594077445       0.964295336733896       0.960266894366527       0.966851837946075       0.940318856466108       0.998462119863404        1.00145840056339       0.994560031074214     
  0.942439936309551       0.938741408049819        1.00226156662566       0.949040257142297       1.404774799034091E-002   1.01796096659099       2.805437962988629E-002  3.265012662356475E-003  0.936475502369480       0.952982466184695        1.00068303951610        1.00344065085887        1.00656660010875       0.967794643749417       0.945163058012242       0.949807295404776     
  0.945240379541354       6.317400946651733E-003  5.079833007522751E-002  4.790007405024532E-002  4.471491291569905E-002 -9.408576603856359E-003 -1.248914498171358E-002 -1.589190423926126E-002 -5.713126494592115E-003 -8.074012783686888E-003 -3.788249546443482E-003  0.987746809432080       0.979822172493526       0.999801533970629       0.944547510321040       0.936913550627851     
  0.932898520388563       2.448942803525977E-002  2.840121513475876E-002  2.451821590009361E-002  0.997255626498242       0.998597496349047       0.991125704438814        1.01834754265030        1.02040741777794       0.990745573211259       0.996260462761053       0.997385250692220       0.994520542686990       0.984524066255985       0.963443364065575       1.047054108136201E-002
  6.624046832281599E-003  0.934686918258866       0.951072346153712       0.948738272828204       3.218701631453846E-002  3.108846027303067E-002  2.910140495327389E-002  0.942326043950863       0.947670116285816       0.944256694853574       5.514926978780942E-002  5.262597495463929E-002  5.001627286049522E-002  0.983621438645410       0.987173817608462       0.987673974462466     